
     Program PWSCF v.6.8 starts on 17Dec2021 at 22: 7:52 

     This program is part of the open-source Quantum ESPRESSO suite
     for quantum simulation of materials; please cite
         "P. Giannozzi et al., J. Phys.:Condens. Matter 21 395502 (2009);
         "P. Giannozzi et al., J. Phys.:Condens. Matter 29 465901 (2017);
         "P. Giannozzi et al., J. Chem. Phys. 152 154105 (2020);
          URL http://www.quantum-espresso.org", 
     in publications or presentations arising from this work. More details at
     http://www.quantum-espresso.org/quote

     Parallel version (MPI), running on     6 processors

     MPI processes distributed on     1 nodes
     R & G space division:  proc/nbgrp/npool/nimage =       6
     10898 MiB available memory on the printing compute node when the environment starts

     Reading input from si.scf.in

     Current dimensions of program PWSCF are:
     Max number of different atomic species (ntypx) = 10
     Max number of k-points (npk) =  40000
     Max angular momentum in pseudopotentials (lmaxx) =  4

     Subspace diagonalization in iterative solution of the eigenvalue problem:
     a serial algorithm will be used


     Parallelization info
     --------------------
     sticks:   dense  smooth     PW     G-vecs:    dense   smooth      PW
     Min         195      97     31                 4468     1567     280
     Max         197      98     32                 4470     1571     283
     Sum        1177     583    187                26813     9409    1687

     Using Slab Decomposition



     bravais-lattice index     =            2
     lattice parameter (alat)  =      10.3576  a.u.
     unit-cell volume          =     277.7899 (a.u.)^3
     number of atoms/cell      =            2
     number of atomic types    =            1
     number of electrons       =         8.00
     number of Kohn-Sham states=            8
     kinetic-energy cutoff     =      40.0000  Ry
     charge density cutoff     =     320.0000  Ry
     scf convergence threshold =      1.0E-08
     mixing beta               =       0.7000
     number of iterations used =            8  plain     mixing
     Exchange-correlation= PBE
                           (   1   4   3   4   0   0   0)

     celldm(1)=  10.357592  celldm(2)=   0.000000  celldm(3)=   0.000000
     celldm(4)=   0.000000  celldm(5)=   0.000000  celldm(6)=   0.000000

     crystal axes: (cart. coord. in units of alat)
               a(1) = (  -0.500000   0.000000   0.500000 )  
               a(2) = (   0.000000   0.500000   0.500000 )  
               a(3) = (  -0.500000   0.500000   0.000000 )  

     reciprocal axes: (cart. coord. in units 2 pi/alat)
               b(1) = ( -1.000000 -1.000000  1.000000 )  
               b(2) = (  1.000000  1.000000  1.000000 )  
               b(3) = ( -1.000000  1.000000 -1.000000 )  


     PseudoPot. # 1 for Si read from file:
     /home/pratham007/Downloads/SSSP_1.1.2_PBE_precision/Si.pbe-n-rrkjus_psl.1.0.0.UPF
     MD5 check sum: 0b0bb1205258b0d07b9f9672cf965d36
     Pseudo is Ultrasoft + core correction, Zval =  4.0
     Generated using "atomic" code by A. Dal Corso  v.5.1
     Using radial grid of 1141 points,  6 beta functions with: 
                l(1) =   0
                l(2) =   0
                l(3) =   1
                l(4) =   1
                l(5) =   2
                l(6) =   2
     Q(r) pseudized with 0 coefficients 


     atomic species   valence    mass     pseudopotential
        Si             4.00    28.08550     Si( 1.00)

     48 Sym. Ops., with inversion, found (24 have fractional translation)



   Cartesian axes

     site n.     atom                  positions (alat units)
         1           Si  tau(   1) = (   0.0000000   0.0000000   0.0000000  )
         2           Si  tau(   2) = (   0.2500000   0.2500000   0.2500000  )

     number of k points=    29
                       cart. coord. in units 2pi/alat
        k(    1) = (   0.0000000   0.0000000   0.0000000), wk =   0.0039062
        k(    2) = (  -0.1250000   0.1250000  -0.1250000), wk =   0.0312500
        k(    3) = (  -0.2500000   0.2500000  -0.2500000), wk =   0.0312500
        k(    4) = (  -0.3750000   0.3750000  -0.3750000), wk =   0.0312500
        k(    5) = (   0.5000000  -0.5000000   0.5000000), wk =   0.0156250
        k(    6) = (   0.0000000   0.2500000   0.0000000), wk =   0.0234375
        k(    7) = (  -0.1250000   0.3750000  -0.1250000), wk =   0.0937500
        k(    8) = (  -0.2500000   0.5000000  -0.2500000), wk =   0.0937500
        k(    9) = (   0.6250000  -0.3750000   0.6250000), wk =   0.0937500
        k(   10) = (   0.5000000  -0.2500000   0.5000000), wk =   0.0937500
        k(   11) = (   0.3750000  -0.1250000   0.3750000), wk =   0.0937500
        k(   12) = (   0.2500000   0.0000000   0.2500000), wk =   0.0468750
        k(   13) = (   0.0000000   0.5000000   0.0000000), wk =   0.0234375
        k(   14) = (  -0.1250000   0.6250000  -0.1250000), wk =   0.0937500
        k(   15) = (   0.7500000  -0.2500000   0.7500000), wk =   0.0937500
        k(   16) = (   0.6250000  -0.1250000   0.6250000), wk =   0.0937500
        k(   17) = (   0.5000000   0.0000000   0.5000000), wk =   0.0468750
        k(   18) = (   0.0000000   0.7500000   0.0000000), wk =   0.0234375
        k(   19) = (   0.8750000  -0.1250000   0.8750000), wk =   0.0937500
        k(   20) = (   0.7500000   0.0000000   0.7500000), wk =   0.0468750
        k(   21) = (   0.0000000  -1.0000000   0.0000000), wk =   0.0117188
        k(   22) = (  -0.2500000   0.5000000   0.0000000), wk =   0.0937500
        k(   23) = (   0.6250000  -0.3750000   0.8750000), wk =   0.1875000
        k(   24) = (   0.5000000  -0.2500000   0.7500000), wk =   0.0937500
        k(   25) = (   0.7500000  -0.2500000   1.0000000), wk =   0.0937500
        k(   26) = (   0.6250000  -0.1250000   0.8750000), wk =   0.1875000
        k(   27) = (   0.5000000   0.0000000   0.7500000), wk =   0.0937500
        k(   28) = (  -0.2500000  -1.0000000   0.0000000), wk =   0.0468750
        k(   29) = (  -0.5000000  -1.0000000   0.0000000), wk =   0.0234375

     Dense  grid:    26813 G-vectors     FFT dimensions: (  48,  48,  48)

     Smooth grid:     9409 G-vectors     FFT dimensions: (  32,  32,  32)

     Estimated max dynamical RAM per process >      18.19 MB

     Estimated total dynamical RAM >     109.14 MB

     Initial potential from superposition of free atoms

     starting charge    7.99888, renormalised to    8.00000
     Starting wfcs are    8 randomized atomic wfcs

     total cpu time spent up to now is        0.2 secs

     Self-consistent Calculation

     iteration #  1     ecut=    40.00 Ry     beta= 0.70
     Davidson diagonalization with overlap
     ethr =  1.00E-02,  avg # of iterations =  3.7

     Threshold (ethr) on eigenvalues was too large:
     Diagonalizing with lowered threshold

     Davidson diagonalization with overlap
     ethr =  6.18E-04,  avg # of iterations =  1.9

     total cpu time spent up to now is        0.6 secs

     total energy              =     -22.83759715 Ry
     estimated scf accuracy    <       0.05312940 Ry

     iteration #  2     ecut=    40.00 Ry     beta= 0.70
     Davidson diagonalization with overlap
     ethr =  6.64E-04,  avg # of iterations =  1.2

     total cpu time spent up to now is        0.8 secs

     total energy              =     -22.83966424 Ry
     estimated scf accuracy    <       0.00223784 Ry

     iteration #  3     ecut=    40.00 Ry     beta= 0.70
     Davidson diagonalization with overlap
     ethr =  2.80E-05,  avg # of iterations =  4.8

     total cpu time spent up to now is        1.0 secs

     total energy              =     -22.83979592 Ry
     estimated scf accuracy    <       0.00004499 Ry

     iteration #  4     ecut=    40.00 Ry     beta= 0.70
     Davidson diagonalization with overlap
     ethr =  5.62E-07,  avg # of iterations =  3.9

     total cpu time spent up to now is        1.1 secs

     total energy              =     -22.83980326 Ry
     estimated scf accuracy    <       0.00000009 Ry

     iteration #  5     ecut=    40.00 Ry     beta= 0.70
     Davidson diagonalization with overlap
     ethr =  1.14E-09,  avg # of iterations =  3.7

     total cpu time spent up to now is        1.3 secs

     End of self-consistent calculation

          k = 0.0000 0.0000 0.0000 (  1243 PWs)   bands (ev):

    -5.8560   5.9177   5.9177   5.9177   8.4686   8.4686   8.4686   8.9630

          k =-0.1250 0.1250-0.1250 (  1209 PWs)   bands (ev):

    -5.6568   4.3258   5.6365   5.6365   8.3355   8.8820   8.8820  10.3856

          k =-0.2500 0.2500-0.2500 (  1197 PWs)   bands (ev):

    -5.0760   2.0390   5.1752   5.1752   7.8497   9.4009   9.4009  12.6078

          k =-0.3750 0.3750-0.3750 (  1179 PWs)   bands (ev):

    -4.2078   0.0652   4.8531   4.8531   7.4853   9.3711   9.3711  13.7423

          k = 0.5000-0.5000 0.5000 (  1170 PWs)   bands (ev):

    -3.5943  -0.9255   4.7426   4.7426   7.3572   9.2704   9.2704  13.6152

          k = 0.0000 0.2500 0.0000 (  1199 PWs)   bands (ev):

    -5.5896   4.5560   5.1356   5.1356   7.9318   9.5774   9.5774  10.0695

          k =-0.1250 0.3750-0.1250 (  1194 PWs)   bands (ev):

    -5.1323   2.7126   4.6353   4.6952   8.0602   9.5099  10.3312  10.6550

          k =-0.2500 0.5000-0.2500 (  1193 PWs)   bands (ev):

    -4.3392   0.7022   4.1138   4.3709   8.1376   9.4922  10.3523  11.3515

          k = 0.6250-0.3750 0.6250 (  1187 PWs)   bands (ev):

    -3.5073  -0.7182   3.6791   4.3920   8.0680   9.3985  10.0096  13.2024

          k = 0.5000-0.2500 0.5000 (  1184 PWs)   bands (ev):

    -3.7423  -0.3599   3.5058   4.6793   8.2112   9.5220   9.7801  13.7150

          k = 0.3750-0.1250 0.3750 (  1189 PWs)   bands (ev):

    -4.6371   1.3446   3.6614   5.1580   8.5485   9.5719   9.7480  12.0991

          k = 0.2500 0.0000 0.2500 (  1187 PWs)   bands (ev):

    -5.3287   3.2415   4.3380   5.6278   8.8557   9.0186   9.2402  11.3045

          k = 0.0000 0.5000 0.0000 (  1198 PWs)   bands (ev):

    -4.7999   2.3936   4.0784   4.0784   7.0747   9.0544  11.5853  11.5853

          k =-0.1250 0.6250-0.1250 (  1190 PWs)   bands (ev):

    -4.1079   1.0047   3.3167   3.7665   7.2946   8.8244  11.7967  12.1054

          k = 0.7500-0.2500 0.7500 (  1194 PWs)   bands (ev):

    -3.2097  -0.3933   2.4733   3.7680   7.4663  10.3468  11.5302  11.7824

          k = 0.6250-0.1250 0.6250 (  1179 PWs)   bands (ev):

    -3.0147  -0.6407   2.0292   4.0773   7.7768  11.3004  11.3481  12.7775

          k = 0.5000 0.0000 0.5000 (  1195 PWs)   bands (ev):

    -3.8650   0.4853   2.2702   4.6203   8.3497  10.6505  10.9894  11.9205

          k = 0.0000 0.7500 0.0000 (  1194 PWs)   bands (ev):

    -3.5193   0.2101   3.3773   3.3773   6.5790   7.5062  13.8203  13.8203

          k = 0.8750-0.1250 0.8750 (  1186 PWs)   bands (ev):

    -2.6458  -0.8507   2.5791   3.3023   6.8605   7.9093  14.0615  14.1048

          k = 0.7500 0.0000 0.7500 (  1172 PWs)   bands (ev):

    -2.2273  -1.2325   1.7441   3.5531   7.1618  10.0267  13.2665  13.9396

          k = 0.0000-1.0000 0.0000 (  1162 PWs)   bands (ev):

    -1.8123  -1.8123   3.1368   3.1368   6.6830   6.6830  15.7847  15.7847

          k =-0.2500 0.5000 0.0000 (  1188 PWs)   bands (ev):

    -4.5593   1.6506   3.2807   4.5231   8.3588   9.7148  10.1288  11.3394

          k = 0.6250-0.3750 0.8750 (  1186 PWs)   bands (ev):

    -3.6959   0.1407   2.6776   4.0396   8.7771   9.4398  10.8829  11.7798

          k = 0.5000-0.2500 0.7500 (  1176 PWs)   bands (ev):

    -3.0674  -0.7710   2.5454   3.8184   8.9252   9.0711  11.7439  13.1940

          k = 0.7500-0.2500 1.0000 (  1191 PWs)   bands (ev):

    -3.3277  -0.0041   2.6486   3.2373   7.8764   8.5819  11.5807  13.7725

          k = 0.6250-0.1250 0.8750 (  1182 PWs)   bands (ev):

    -2.4808  -0.9466   1.9738   3.0427   8.3157  10.1860  11.1087  13.2408

          k = 0.5000 0.0000 0.7500 (  1184 PWs)   bands (ev):

    -2.8222  -0.5904   1.8128   3.4067   8.7816  10.4242  11.0689  12.8608

          k =-0.2500-1.0000 0.0000 (  1182 PWs)   bands (ev):

    -1.7399  -1.7399   2.5980   2.5980   7.9095   7.9095  13.6383  13.6383

          k =-0.5000-1.0000 0.0000 (  1176 PWs)   bands (ev):

    -1.6606  -1.6606   2.1806   2.1806  10.1936  10.1936  10.8228  10.8228

     highest occupied, lowest unoccupied level (ev):     5.9177    6.5790

!    total energy              =     -22.83980348 Ry
     estimated scf accuracy    <          6.5E-09 Ry

     The total energy is the sum of the following terms:
     one-electron contribution =       4.95270589 Ry
     hartree contribution      =       1.12591967 Ry
     xc contribution           =     -12.27580255 Ry
     ewald contribution        =     -16.64262650 Ry

     convergence has been achieved in   5 iterations

     Writing output data file ../out/si.save/

     init_run     :      0.15s CPU      0.17s WALL (       1 calls)
     electrons    :      1.09s CPU      1.12s WALL (       1 calls)

     Called by init_run:
     wfcinit      :      0.05s CPU      0.05s WALL (       1 calls)
     potinit      :      0.02s CPU      0.02s WALL (       1 calls)
     hinit0       :      0.06s CPU      0.07s WALL (       1 calls)

     Called by electrons:
     c_bands      :      0.74s CPU      0.75s WALL (       6 calls)
     sum_band     :      0.21s CPU      0.22s WALL (       6 calls)
     v_of_rho     :      0.06s CPU      0.06s WALL (       6 calls)
     newd         :      0.08s CPU      0.09s WALL (       6 calls)
     mix_rho      :      0.00s CPU      0.00s WALL (       6 calls)

     Called by c_bands:
     init_us_2    :      0.02s CPU      0.02s WALL (     377 calls)
     cegterg      :      0.70s CPU      0.71s WALL (     174 calls)

     Called by *egterg:
     cdiaghg      :      0.04s CPU      0.04s WALL (     701 calls)
     h_psi        :      0.56s CPU      0.57s WALL (     759 calls)
     s_psi        :      0.03s CPU      0.03s WALL (     759 calls)
     g_psi        :      0.00s CPU      0.00s WALL (     556 calls)

     Called by h_psi:
     h_psi:calbec :      0.06s CPU      0.06s WALL (     759 calls)
     vloc_psi     :      0.47s CPU      0.47s WALL (     759 calls)
     add_vuspsi   :      0.03s CPU      0.03s WALL (     759 calls)

     General routines
     calbec       :      0.08s CPU      0.08s WALL (     933 calls)
     fft          :      0.04s CPU      0.04s WALL (      77 calls)
     ffts         :      0.00s CPU      0.00s WALL (      12 calls)
     fftw         :      0.51s CPU      0.52s WALL (    9482 calls)
     interpolate  :      0.00s CPU      0.00s WALL (       6 calls)

     Parallel routines

     PWSCF        :      1.30s CPU      1.36s WALL


   This run was terminated on:  22: 7:53  17Dec2021            

=------------------------------------------------------------------------------=
   JOB DONE.
=------------------------------------------------------------------------------=
