
     Program BANDS v.6.8 starts on 17Dec2021 at 22:38: 6 

     This program is part of the open-source Quantum ESPRESSO suite
     for quantum simulation of materials; please cite
         "P. Giannozzi et al., J. Phys.:Condens. Matter 21 395502 (2009);
         "P. Giannozzi et al., J. Phys.:Condens. Matter 29 465901 (2017);
         "P. Giannozzi et al., J. Chem. Phys. 152 154105 (2020);
          URL http://www.quantum-espresso.org", 
     in publications or presentations arising from this work. More details at
     http://www.quantum-espresso.org/quote

     Parallel version (MPI), running on     6 processors

     MPI processes distributed on     1 nodes
     R & G space division:  proc/nbgrp/npool/nimage =       6
     10791 MiB available memory on the printing compute node when the environment starts


     Reading xml data from directory:

     ../out/si.save/

     IMPORTANT: XC functional enforced from input :
     Exchange-correlation= PBE
                           (   1   4   3   4   0   0   0)
     Any further DFT definition will be discarded
     Please, verify this is what you really want


     Parallelization info
     --------------------
     sticks:   dense  smooth     PW     G-vecs:    dense   smooth      PW
     Min         195      97     30                 4468     1567     265
     Max         197      98     32                 4469     1571     266
     Sum        1177     583    187                26813     9409    1591

     Using Slab Decomposition

     Reading collected, re-writing distributed wavefunctions
     high-symmetry point:  0.5000 0.5000 0.5000   x coordinate   0.0000
     high-symmetry point:  0.0000 0.0000 0.0000   x coordinate   0.8660
     high-symmetry point:  1.0000 0.0000 0.0000   x coordinate   1.8660
     high-symmetry point:  1.0000 0.2500 0.2500   x coordinate   2.2196
     high-symmetry point:  0.0000 0.0000 0.0000   x coordinate   3.2802

     Plottable bands (eV) written to file si.bands.dat.gnu
     Bands written to file si.bands.dat

 **************************************************************************

                    xk=(   0.50000,   0.50000,   0.50000  )

     zone border point and non-symmorphic group 
     symmetry decomposition not available

 **************************************************************************

 **************************************************************************

                    xk=(   0.47500,   0.47500,   0.47500  )

     point group C_3v (3m)  
     there are  3 classes
     the character table:

       E     2C3   3s_v 
A_1    1.00  1.00  1.00
A_2    1.00  1.00 -1.00
E      2.00 -1.00  0.00

     the symmetry operations in each class and the name of the first element:

     E        1
                                                                 
     2C3      2    3
                                                                 
     3s_v     4    5    6
                                                                 

     Band symmetry, C_3v (3m)   point group:

     e(  1 -  1) =     -3.62790  eV     1   --> A_1  L_1       
     e(  2 -  2) =     -0.87634  eV     1   --> A_1  L_1       
     e(  3 -  4) =      4.74720  eV     2   --> E    L_3       
     e(  5 -  5) =      7.36264  eV     1   --> A_1  L_1       
     e(  6 -  7) =      9.27526  eV     2   --> E    L_3       
     e(  8 -  8) =     13.62299  eV     1   --> A_1  L_1       

 **************************************************************************

 **************************************************************************

                    xk=(   0.45000,   0.45000,   0.45000  )

     Band symmetry, C_3v (3m)   point group:

     e(  1 -  1) =     -3.72228  eV     1   --> A_1  L_1       
     e(  2 -  2) =     -0.73651  eV     1   --> A_1  L_1       
     e(  3 -  4) =      4.76049  eV     2   --> E    L_3       
     e(  5 -  5) =      7.37812  eV     1   --> A_1  L_1       
     e(  6 -  7) =      9.28931  eV     2   --> E    L_3       
     e(  8 -  8) =     13.64429  eV     1   --> A_1  L_1       

 **************************************************************************

 **************************************************************************

                    xk=(   0.42500,   0.42500,   0.42500  )

     Band symmetry, C_3v (3m)   point group:

     e(  1 -  1) =     -3.86112  eV     1   --> A_1  L_1       
     e(  2 -  2) =     -0.52205  eV     1   --> A_1  L_1       
     e(  3 -  4) =      4.78263  eV     2   --> E    L_3       
     e(  5 -  5) =      7.40385  eV     1   --> A_1  L_1       
     e(  6 -  7) =      9.31146  eV     2   --> E    L_3       
     e(  8 -  8) =     13.67674  eV     1   --> A_1  L_1       

 **************************************************************************

 **************************************************************************

                    xk=(   0.40000,   0.40000,   0.40000  )

     Band symmetry, C_3v (3m)   point group:

     e(  1 -  1) =     -4.02739  eV     1   --> A_1  L_1       
     e(  2 -  2) =     -0.25017  eV     1   --> A_1  L_1       
     e(  3 -  4) =      4.81357  eV     2   --> E    L_3       
     e(  5 -  5) =      7.43972  eV     1   --> A_1  L_1       
     e(  6 -  7) =      9.33974  eV     2   --> E    L_3       
     e(  8 -  8) =     13.71406  eV     1   --> A_1  L_1       

 **************************************************************************

 **************************************************************************

                    xk=(   0.37500,   0.37500,   0.37500  )

     Band symmetry, C_3v (3m)   point group:

     e(  1 -  1) =     -4.20757  eV     1   --> A_1  L_1       
     e(  2 -  2) =      0.06538  eV     1   --> A_1  L_1       
     e(  3 -  4) =      4.85324  eV     2   --> E    L_3       
     e(  5 -  5) =      7.48554  eV     1   --> A_1  L_1       
     e(  6 -  7) =      9.37121  eV     2   --> E    L_3       
     e(  8 -  8) =     13.74224  eV     1   --> A_1  L_1       

 **************************************************************************

 **************************************************************************

                    xk=(   0.35000,   0.35000,   0.35000  )

     Band symmetry, C_3v (3m)   point group:

     e(  1 -  1) =     -4.39221  eV     1   --> A_1  L_1       
     e(  2 -  2) =      0.41474  eV     1   --> A_1  L_1       
     e(  3 -  4) =      4.90153  eV     2   --> E    L_3       
     e(  5 -  5) =      7.54104  eV     1   --> A_1  L_1       
     e(  6 -  7) =      9.40185  eV     2   --> E    L_3       
     e(  8 -  8) =     13.72963  eV     1   --> A_1  L_1       

 **************************************************************************

 **************************************************************************

                    xk=(   0.32500,   0.32500,   0.32500  )

     Band symmetry, C_3v (3m)   point group:

     e(  1 -  1) =     -4.57496  eV     1   --> A_1  L_1       
     e(  2 -  2) =      0.79111  eV     1   --> A_1  L_1       
     e(  3 -  4) =      4.95823  eV     2   --> E    L_3       
     e(  5 -  5) =      7.60584  eV     1   --> A_1  L_1       
     e(  6 -  7) =      9.42647  eV     2   --> E    L_3       
     e(  8 -  8) =     13.61818  eV     1   --> A_1  L_1       

 **************************************************************************

 **************************************************************************

                    xk=(   0.30000,   0.30000,   0.30000  )

     Band symmetry, C_3v (3m)   point group:

     e(  1 -  1) =     -4.75158  eV     1   --> A_1  L_1       
     e(  2 -  2) =      1.18964  eV     1   --> A_1  L_1       
     e(  3 -  4) =      5.02308  eV     2   --> E    L_3       
     e(  5 -  5) =      7.67944  eV     1   --> A_1  L_1       
     e(  6 -  7) =      9.43886  eV     2   --> E    L_3       
     e(  8 -  8) =     13.36783  eV     1   --> A_1  L_1       

 **************************************************************************

 **************************************************************************

                    xk=(   0.27500,   0.27500,   0.27500  )

     Band symmetry, C_3v (3m)   point group:

     e(  1 -  1) =     -4.91921  eV     1   --> A_1  L_1       
     e(  2 -  2) =      1.60667  eV     1   --> A_1  L_1       
     e(  3 -  4) =      5.09566  eV     2   --> E    L_3       
     e(  5 -  5) =      7.76111  eV     1   --> A_1  L_1       
     e(  6 -  7) =      9.43236  eV     2   --> E    L_3       
     e(  8 -  8) =     13.01407  eV     1   --> A_1  L_1       

 **************************************************************************

 **************************************************************************

                    xk=(   0.25000,   0.25000,   0.25000  )

     Band symmetry, C_3v (3m)   point group:

     e(  1 -  1) =     -5.07586  eV     1   --> A_1  L_1       
     e(  2 -  2) =      2.03918  eV     1   --> A_1  L_1       
     e(  3 -  4) =      5.17536  eV     2   --> E    L_3       
     e(  5 -  5) =      7.84988  eV     1   --> A_1  L_1       
     e(  6 -  7) =      9.40106  eV     2   --> E    L_3       
     e(  8 -  8) =     12.60809  eV     1   --> A_1  L_1       

 **************************************************************************

 **************************************************************************

                    xk=(   0.22500,   0.22500,   0.22500  )

     Band symmetry, C_3v (3m)   point group:

     e(  1 -  1) =     -5.22011  eV     1   --> A_1  L_1       
     e(  2 -  2) =      2.48441  eV     1   --> A_1  L_1       
     e(  3 -  4) =      5.26134  eV     2   --> E    L_3       
     e(  5 -  5) =      7.94447  eV     1   --> A_1  L_1       
     e(  6 -  7) =      9.34142  eV     2   --> E    L_3       
     e(  8 -  8) =     12.17719  eV     1   --> A_1  L_1       

 **************************************************************************

 **************************************************************************

                    xk=(   0.20000,   0.20000,   0.20000  )

     Band symmetry, C_3v (3m)   point group:

     e(  1 -  1) =     -5.35096  eV     1   --> A_1  L_1       
     e(  2 -  2) =      2.93954  eV     1   --> A_1  L_1       
     e(  3 -  4) =      5.35241  eV     2   --> E    L_3       
     e(  5 -  5) =      8.04311  eV     1   --> A_1  L_1       
     e(  6 -  7) =      9.25373  eV     2   --> E    L_3       
     e(  8 -  8) =     11.73359  eV     1   --> A_1  L_1       

 **************************************************************************

 **************************************************************************

                    xk=(   0.17500,   0.17500,   0.17500  )

     Band symmetry, C_3v (3m)   point group:

     e(  1 -  1) =     -5.46768  eV     1   --> A_1  L_1       
     e(  2 -  2) =      3.40127  eV     1   --> A_1  L_1       
     e(  3 -  4) =      5.44693  eV     2   --> E    L_3       
     e(  5 -  5) =      8.14346  eV     1   --> A_1  L_1       
     e(  6 -  7) =      9.14245  eV     2   --> E    L_3       
     e(  8 -  8) =     11.28365  eV     1   --> A_1  L_1       

 **************************************************************************

 **************************************************************************

                    xk=(   0.15000,   0.15000,   0.15000  )

     Band symmetry, C_3v (3m)   point group:

     e(  1 -  1) =     -5.56968  eV     1   --> A_1  L_1       
     e(  2 -  2) =      3.86541  eV     1   --> A_1  L_1       
     e(  3 -  4) =      5.54268  eV     2   --> E    L_3       
     e(  5 -  5) =      8.24239  eV     1   --> A_1  L_1       
     e(  6 -  7) =      9.01537  eV     2   --> E    L_3       
     e(  8 -  8) =     10.83232  eV     1   --> A_1  L_1       

 **************************************************************************

 **************************************************************************

                    xk=(   0.12500,   0.12500,   0.12500  )

     Band symmetry, C_3v (3m)   point group:

     e(  1 -  1) =     -5.65657  eV     1   --> A_1  L_1       
     e(  2 -  2) =      4.32599  eV     1   --> A_1  L_1       
     e(  3 -  4) =      5.63666  eV     2   --> E    L_3       
     e(  5 -  5) =      8.33568  eV     1   --> A_1  L_1       
     e(  6 -  7) =      8.88211  eV     2   --> E    L_3       
     e(  8 -  8) =     10.38588  eV     1   --> A_1  L_1       

 **************************************************************************

 **************************************************************************

                    xk=(   0.10000,   0.10000,   0.10000  )

     Band symmetry, C_3v (3m)   point group:

     e(  1 -  1) =     -5.72803  eV     1   --> A_1  L_1       
     e(  2 -  2) =      4.77379  eV     1   --> A_1  L_1       
     e(  3 -  4) =      5.72495  eV     2   --> E    L_3       
     e(  5 -  5) =      8.41747  eV     1   --> A_1  L_1       
     e(  6 -  7) =      8.75298  eV     2   --> E    L_3       
     e(  8 -  8) =      9.95465  eV     1   --> A_1  L_1       

 **************************************************************************

 **************************************************************************

                    xk=(   0.07500,   0.07500,   0.07500  )

     Band symmetry, C_3v (3m)   point group:

     e(  1 -  1) =     -5.78382  eV     1   --> A_1  L_1       
     e(  2 -  2) =      5.19336  eV     1   --> A_1  L_1       
     e(  3 -  4) =      5.80269  eV     2   --> E    L_3       
     e(  5 -  5) =      8.47906  eV     1   --> A_1  L_1       
     e(  6 -  7) =      8.63818  eV     2   --> E    L_3       
     e(  8 -  8) =      9.55764  eV     1   --> A_1  L_1       

 **************************************************************************

 **************************************************************************

                    xk=(   0.05000,   0.05000,   0.05000  )

     Band symmetry, C_3v (3m)   point group:

     e(  1 -  1) =     -5.82379  eV     1   --> A_1  L_1       
     e(  2 -  2) =      5.55745  eV     1   --> A_1  L_1       
     e(  3 -  4) =      5.86427  eV     2   --> E    L_3       
     e(  5 -  5) =      8.50688  eV     1   --> A_1  L_1       
     e(  6 -  7) =      8.54736  eV     2   --> E    L_3       
     e(  8 -  8) =      9.23052  eV     1   --> A_1  L_1       

 **************************************************************************

 **************************************************************************

                    xk=(   0.02500,   0.02500,   0.02500  )

     Band symmetry, C_3v (3m)   point group:

     e(  1 -  1) =     -5.84781  eV     1   --> A_1  L_1       
     e(  2 -  2) =      5.81949  eV     1   --> A_1  L_1       
     e(  3 -  4) =      5.90411  eV     2   --> E    L_3       
     e(  5 -  6) =      8.48891  eV     2   --> E    L_3       
     e(  7 -  7) =      8.49047  eV     1   --> A_1  L_1       
     e(  8 -  8) =      9.02588  eV     1   --> A_1  L_1       

 **************************************************************************

 **************************************************************************

                    xk=(   0.00000,   0.00000,   0.00000  )

     point group O_h (m-3m) 
     there are 10 classes
     the character table:

       E     8C3   3C2   6C4   6C2'  i     8S6   3s_h  6S4   6s_d 
A_1g   1.00  1.00  1.00  1.00  1.00  1.00  1.00  1.00  1.00  1.00
A_2g   1.00  1.00  1.00 -1.00 -1.00  1.00  1.00  1.00 -1.00 -1.00
E_g    2.00 -1.00  2.00  0.00  0.00  2.00 -1.00  2.00  0.00  0.00
T_1g   3.00  0.00 -1.00  1.00 -1.00  3.00  0.00 -1.00  1.00 -1.00
T_2g   3.00  0.00 -1.00 -1.00  1.00  3.00  0.00 -1.00 -1.00  1.00
A_1u   1.00  1.00  1.00  1.00  1.00 -1.00 -1.00 -1.00 -1.00 -1.00
A_2u   1.00  1.00  1.00 -1.00 -1.00 -1.00 -1.00 -1.00  1.00  1.00
E_u    2.00 -1.00  2.00  0.00  0.00 -2.00  1.00 -2.00  0.00  0.00
T_1u   3.00  0.00 -1.00  1.00 -1.00 -3.00  0.00  1.00 -1.00  1.00
T_2u   3.00  0.00 -1.00 -1.00  1.00 -3.00  0.00  1.00  1.00 -1.00

     the symmetry operations in each class and the name of the first element:

     E        1
                                                                 
     8C3     17   19   20   18   24   21   22   23
                                                                 
     3C2      2    4    3
                                                                 
     6C4      7    8   15   16   12   11
                                                                 
     6C2'     5    6   14   13   10    9
                                                                 
     i       25
                                                                 
     8S6     41   43   44   42   48   45   46   47
                                                                 
     3s_h    26   28   27
                                                                 
     6S4     31   32   39   40   36   35
                                                                 
     6s_d    29   30   38   37   34   33
                                                                 

     Band symmetry, O_h (m-3m)  point group:

     e(  1 -  1) =     -5.85583  eV     1   --> A_1g G_1   G_1+
     e(  2 -  4) =      5.91794  eV     3   --> T_2g G_25' G_5+
     e(  5 -  7) =      8.46870  eV     3   --> T_1u G_15  G_4-
     e(  8 -  8) =      8.96324  eV     1   --> A_2u G_2'  G_2-

 **************************************************************************

 **************************************************************************

                    xk=(   0.03333,   0.00000,   0.00000  )

     point group C_4v (4mm) 
     there are  5 classes
     the character table:

       E     2C4   C2    2s_v  2s_d 
A_1    1.00  1.00  1.00  1.00  1.00
A_2    1.00  1.00  1.00 -1.00 -1.00
B_1    1.00 -1.00  1.00  1.00 -1.00
B_2    1.00 -1.00  1.00 -1.00  1.00
E      2.00  0.00 -2.00  0.00  0.00

     the symmetry operations in each class and the name of the first element:

     E        1
                                                                 
     2C4      3    4
                                                                 
     C2       2
                                                                 
     2s_v     5    6
                                                                 
     2s_d     7    8
                                                                 

     Band symmetry, C_4v (4mm)  point group:

     e(  1 -  1) =     -5.85108  eV     1   --> A_1  G_1 D_1   
     e(  2 -  2) =      5.88256  eV     1   --> B_2  G_4 D_2'  
     e(  3 -  4) =      5.89757  eV     2   --> E    G_5 D_5   
     e(  5 -  5) =      8.45689  eV     1   --> A_1  G_1 D_1   
     e(  6 -  7) =      8.49493  eV     2   --> E    G_5 D_5   
     e(  8 -  8) =      8.99794  eV     1   --> B_2  G_4 D_2'  

 **************************************************************************

 **************************************************************************

                    xk=(   0.06667,   0.00000,   0.00000  )

     Band symmetry, C_4v (4mm)  point group:

     e(  1 -  1) =     -5.83683  eV     1   --> A_1  G_1 D_1   
     e(  2 -  2) =      5.78115  eV     1   --> B_2  G_4 D_2'  
     e(  3 -  4) =      5.83895  eV     2   --> E    G_5 D_5   
     e(  5 -  5) =      8.42210  eV     1   --> A_1  G_1 D_1   
     e(  6 -  7) =      8.57114  eV     2   --> E    G_5 D_5   
     e(  8 -  8) =      9.09680  eV     1   --> B_2  G_4 D_2'  

 **************************************************************************

 **************************************************************************

                    xk=(   0.10000,   0.00000,   0.00000  )

     Band symmetry, C_4v (4mm)  point group:

     e(  1 -  1) =     -5.81309  eV     1   --> A_1  G_1 D_1   
     e(  2 -  2) =      5.62522  eV     1   --> B_2  G_4 D_2'  
     e(  3 -  4) =      5.74836  eV     2   --> E    G_5 D_5   
     e(  5 -  5) =      8.36613  eV     1   --> A_1  G_1 D_1   
     e(  6 -  7) =      8.69097  eV     2   --> E    G_5 D_5   
     e(  8 -  8) =      9.24653  eV     1   --> B_2  G_4 D_2'  

 **************************************************************************

 **************************************************************************

                    xk=(   0.13333,   0.00000,   0.00000  )

     Band symmetry, C_4v (4mm)  point group:

     e(  1 -  1) =     -5.77988  eV     1   --> A_1  G_1 D_1   
     e(  2 -  2) =      5.42809  eV     1   --> B_2  G_4 D_2'  
     e(  3 -  4) =      5.63361  eV     2   --> E    G_5 D_5   
     e(  5 -  5) =      8.29166  eV     1   --> A_1  G_1 D_1   
     e(  6 -  7) =      8.84660  eV     2   --> E    G_5 D_5   
     e(  8 -  8) =      9.43045  eV     1   --> B_2  G_4 D_2'  

 **************************************************************************

 **************************************************************************

                    xk=(   0.16667,   0.00000,   0.00000  )

     Band symmetry, C_4v (4mm)  point group:

     e(  1 -  1) =     -5.73722  eV     1   --> A_1  G_1 D_1   
     e(  2 -  2) =      5.20131  eV     1   --> B_2  G_4 D_2'  
     e(  3 -  4) =      5.50202  eV     2   --> E    G_5 D_5   
     e(  5 -  5) =      8.20187  eV     1   --> A_1  G_1 D_1   
     e(  6 -  7) =      9.03058  eV     2   --> E    G_5 D_5   
     e(  8 -  8) =      9.63102  eV     1   --> B_2  G_4 D_2'  

 **************************************************************************

 **************************************************************************

                    xk=(   0.20000,   0.00000,   0.00000  )

     Band symmetry, C_4v (4mm)  point group:

     e(  1 -  1) =     -5.68512  eV     1   --> A_1  G_1 D_1   
     e(  2 -  2) =      4.95367  eV     1   --> B_2  G_4 D_2'  
     e(  3 -  4) =      5.35967  eV     2   --> E    G_5 D_5   
     e(  5 -  5) =      8.10009  eV     1   --> A_1  G_1 D_1   
     e(  6 -  7) =      9.23676  eV     2   --> E    G_5 D_5   
     e(  8 -  8) =      9.82924  eV     1   --> B_2  G_4 D_2'  

 **************************************************************************

 **************************************************************************

                    xk=(   0.23333,   0.00000,   0.00000  )

     Band symmetry, C_4v (4mm)  point group:

     e(  1 -  1) =     -5.62363  eV     1   --> A_1  G_1 D_1   
     e(  2 -  2) =      4.69143  eV     1   --> B_2  G_4 D_2'  
     e(  3 -  4) =      5.21118  eV     2   --> E    G_5 D_5   
     e(  5 -  5) =      7.98955  eV     1   --> A_1  G_1 D_1   
     e(  6 -  7) =      9.46037  eV     2   --> E    G_5 D_5   
     e(  8 -  8) =     10.00193  eV     1   --> B_2  G_4 D_2'  

 **************************************************************************

 **************************************************************************

                    xk=(   0.26667,   0.00000,   0.00000  )

     Band symmetry, C_4v (4mm)  point group:

     e(  1 -  1) =     -5.55280  eV     1   --> A_1  G_1 D_1   
     e(  2 -  2) =      4.41893  eV     1   --> B_2  G_4 D_2'  
     e(  3 -  4) =      5.06003  eV     2   --> E    G_5 D_5   
     e(  5 -  5) =      7.87320  eV     1   --> A_1  G_1 D_1   
     e(  6 -  7) =      9.69783  eV     2   --> E    G_5 D_5   
     e(  8 -  8) =     10.11991  eV     1   --> B_2  G_4 D_2'  

 **************************************************************************

 **************************************************************************

                    xk=(   0.30000,   0.00000,   0.00000  )

     Band symmetry, C_4v (4mm)  point group:

     e(  1 -  1) =     -5.47264  eV     1   --> A_1  G_1 D_1   
     e(  2 -  2) =      4.13919  eV     1   --> B_2  G_4 D_2'  
     e(  3 -  4) =      4.90876  eV     2   --> E    G_5 D_5   
     e(  5 -  5) =      7.75366  eV     1   --> A_1  G_1 D_1   
     e(  6 -  7) =      9.94644  eV     2   --> E    G_5 D_5   
     e(  8 -  8) =     10.15398  eV     1   --> B_2  G_4 D_2'  

 **************************************************************************

 **************************************************************************

                    xk=(   0.33333,   0.00000,   0.00000  )

     Band symmetry, C_4v (4mm)  point group:

     e(  1 -  1) =     -5.38324  eV     1   --> A_1  G_1 D_1   
     e(  2 -  2) =      3.85432  eV     1   --> B_2  G_4 D_2'  
     e(  3 -  4) =      4.75929  eV     2   --> E    G_5 D_5   
     e(  5 -  5) =      7.63320  eV     1   --> A_1  G_1 D_1   
     e(  6 -  6) =     10.09252  eV     1   --> B_2  G_4 D_2'  
     e(  7 -  8) =     10.20416  eV     2   --> E    G_5 D_5   

 **************************************************************************

 **************************************************************************

                    xk=(   0.36667,   0.00000,   0.00000  )

     Band symmetry, C_4v (4mm)  point group:

     e(  1 -  1) =     -5.28465  eV     1   --> A_1  G_1 D_1   
     e(  2 -  2) =      3.56581  eV     1   --> B_2  G_4 D_2'  
     e(  3 -  4) =      4.61303  eV     2   --> E    G_5 D_5   
     e(  5 -  5) =      7.51373  eV     1   --> A_1  G_1 D_1   
     e(  6 -  6) =      9.95078  eV     1   --> B_2  G_4 D_2'  
     e(  7 -  8) =     10.46944  eV     2   --> E    G_5 D_5   

 **************************************************************************

 **************************************************************************

                    xk=(   0.40000,   0.00000,   0.00000  )

     Band symmetry, C_4v (4mm)  point group:

     e(  1 -  1) =     -5.17691  eV     1   --> A_1  G_1 D_1   
     e(  2 -  2) =      3.27477  eV     1   --> B_2  G_4 D_2'  
     e(  3 -  4) =      4.47107  eV     2   --> E    G_5 D_5   
     e(  5 -  5) =      7.39690  eV     1   --> A_1  G_1 D_1   
     e(  6 -  6) =      9.75623  eV     1   --> B_2  G_4 D_2'  
     e(  7 -  8) =     10.74106  eV     2   --> E    G_5 D_5   

 **************************************************************************

 **************************************************************************

                    xk=(   0.43333,   0.00000,   0.00000  )

     Band symmetry, C_4v (4mm)  point group:

     e(  1 -  1) =     -5.06014  eV     1   --> A_1  G_1 D_1   
     e(  2 -  2) =      2.98201  eV     1   --> B_2  G_4 D_2'  
     e(  3 -  4) =      4.33425  eV     2   --> E    G_5 D_5   
     e(  5 -  5) =      7.28407  eV     1   --> A_1  G_1 D_1   
     e(  6 -  6) =      9.53247  eV     1   --> B_2  G_4 D_2'  
     e(  7 -  8) =     11.01807  eV     2   --> E    G_5 D_5   

 **************************************************************************

 **************************************************************************

                    xk=(   0.46667,   0.00000,   0.00000  )

     Band symmetry, C_4v (4mm)  point group:

     e(  1 -  1) =     -4.93439  eV     1   --> A_1  G_1 D_1   
     e(  2 -  2) =      2.68818  eV     1   --> B_2  G_4 D_2'  
     e(  3 -  4) =      4.20324  eV     2   --> E    G_5 D_5   
     e(  5 -  5) =      7.17641  eV     1   --> A_1  G_1 D_1   
     e(  6 -  6) =      9.29531  eV     1   --> B_2  G_4 D_2'  
     e(  7 -  8) =     11.29972  eV     2   --> E    G_5 D_5   

 **************************************************************************

 **************************************************************************

                    xk=(   0.50000,   0.00000,   0.00000  )

     Band symmetry, C_4v (4mm)  point group:

     e(  1 -  1) =     -4.79977  eV     1   --> A_1  G_1 D_1   
     e(  2 -  2) =      2.39377  eV     1   --> B_2  G_4 D_2'  
     e(  3 -  4) =      4.07855  eV     2   --> E    G_5 D_5   
     e(  5 -  5) =      7.07491  eV     1   --> A_1  G_1 D_1   
     e(  6 -  6) =      9.05458  eV     1   --> B_2  G_4 D_2'  
     e(  7 -  8) =     11.58541  eV     2   --> E    G_5 D_5   

 **************************************************************************

 **************************************************************************

                    xk=(   0.53333,   0.00000,   0.00000  )

     Band symmetry, C_4v (4mm)  point group:

     e(  1 -  1) =     -4.65637  eV     1   --> A_1  G_1 D_1   
     e(  2 -  2) =      2.09929  eV     1   --> B_2  G_4 D_2'  
     e(  3 -  4) =      3.96061  eV     2   --> E    G_5 D_5   
     e(  5 -  5) =      6.98041  eV     1   --> A_1  G_1 D_1   
     e(  6 -  6) =      8.81640  eV     1   --> B_2  G_4 D_2'  
     e(  7 -  8) =     11.87468  eV     2   --> E    G_5 D_5   

 **************************************************************************

 **************************************************************************

                    xk=(   0.56667,   0.00000,   0.00000  )

     Band symmetry, C_4v (4mm)  point group:

     e(  1 -  1) =     -4.50431  eV     1   --> A_1  G_1 D_1   
     e(  2 -  2) =      1.80512  eV     1   --> B_2  G_4 D_2'  
     e(  3 -  4) =      3.84977  eV     2   --> E    G_5 D_5   
     e(  5 -  5) =      6.89364  eV     1   --> A_1  G_1 D_1   
     e(  6 -  6) =      8.58469  eV     1   --> B_2  G_4 D_2'  
     e(  7 -  8) =     12.16713  eV     2   --> E    G_5 D_5   

 **************************************************************************

 **************************************************************************

                    xk=(   0.60000,   0.00000,   0.00000  )

     Band symmetry, C_4v (4mm)  point group:

     e(  1 -  1) =     -4.34371  eV     1   --> A_1  G_1 D_1   
     e(  2 -  2) =      1.51166  eV     1   --> B_2  G_4 D_2'  
     e(  3 -  4) =      3.74631  eV     2   --> E    G_5 D_5   
     e(  5 -  5) =      6.81522  eV     1   --> A_1  G_1 D_1   
     e(  6 -  6) =      8.36201  eV     1   --> B_2  G_4 D_2'  
     e(  7 -  8) =     12.46246  eV     2   --> E    G_5 D_5   

 **************************************************************************

 **************************************************************************

                    xk=(   0.63333,   0.00000,   0.00000  )

     Band symmetry, C_4v (4mm)  point group:

     e(  1 -  1) =     -4.17471  eV     1   --> A_1  G_1 D_1   
     e(  2 -  2) =      1.21929  eV     1   --> B_2  G_4 D_2'  
     e(  3 -  4) =      3.65045  eV     2   --> E    G_5 D_5   
     e(  5 -  5) =      6.74571  eV     1   --> A_1  G_1 D_1   
     e(  6 -  6) =      8.15006  eV     1   --> B_2  G_4 D_2'  
     e(  7 -  8) =     12.76042  eV     2   --> E    G_5 D_5   

 **************************************************************************

 **************************************************************************

                    xk=(   0.66667,   0.00000,   0.00000  )

     Band symmetry, C_4v (4mm)  point group:

     e(  1 -  1) =     -3.99742  eV     1   --> A_1  G_1 D_1   
     e(  2 -  2) =      0.92840  eV     1   --> B_2  G_4 D_2'  
     e(  3 -  4) =      3.56241  eV     2   --> E    G_5 D_5   
     e(  5 -  5) =      6.68560  eV     1   --> A_1  G_1 D_1   
     e(  6 -  6) =      7.95002  eV     1   --> B_2  G_4 D_2'  
     e(  7 -  8) =     13.06078  eV     2   --> E    G_5 D_5   

 **************************************************************************

 **************************************************************************

                    xk=(   0.70000,   0.00000,   0.00000  )

     Band symmetry, C_4v (4mm)  point group:

     e(  1 -  1) =     -3.81205  eV     1   --> A_1  G_1 D_1   
     e(  2 -  2) =      0.63938  eV     1   --> B_2  G_4 D_2'  
     e(  3 -  4) =      3.48234  eV     2   --> E    G_5 D_5   
     e(  5 -  5) =      6.63533  eV     1   --> A_1  G_1 D_1   
     e(  6 -  6) =      7.76264  eV     1   --> B_2  G_4 D_2'  
     e(  7 -  8) =     13.36330  eV     2   --> E    G_5 D_5   

 **************************************************************************

 **************************************************************************

                    xk=(   0.73333,   0.00000,   0.00000  )

     Band symmetry, C_4v (4mm)  point group:

     e(  1 -  1) =     -3.61874  eV     1   --> A_1  G_1 D_1   
     e(  2 -  2) =      0.35263  eV     1   --> B_2  G_4 D_2'  
     e(  3 -  4) =      3.41039  eV     2   --> E    G_5 D_5   
     e(  5 -  5) =      6.59531  eV     1   --> A_1  G_1 D_1   
     e(  6 -  6) =      7.58844  eV     1   --> B_2  G_4 D_2'  
     e(  7 -  8) =     13.66768  eV     2   --> E    G_5 D_5   

 **************************************************************************

 **************************************************************************

                    xk=(   0.76667,   0.00000,   0.00000  )

     Band symmetry, C_4v (4mm)  point group:

     e(  1 -  1) =     -3.41767  eV     1   --> A_1  G_1 D_1   
     e(  2 -  2) =      0.06855  eV     1   --> B_2  G_4 D_2'  
     e(  3 -  4) =      3.34665  eV     2   --> E    G_5 D_5   
     e(  5 -  5) =      6.56589  eV     1   --> A_1  G_1 D_1   
     e(  6 -  6) =      7.42772  eV     1   --> B_2  G_4 D_2'  
     e(  7 -  8) =     13.97351  eV     2   --> E    G_5 D_5   

 **************************************************************************

 **************************************************************************

                    xk=(   0.80000,   0.00000,   0.00000  )

     Band symmetry, C_4v (4mm)  point group:

     e(  1 -  1) =     -3.20907  eV     1   --> A_1  G_1 D_1   
     e(  2 -  2) =     -0.21246  eV     1   --> B_2  G_4 D_2'  
     e(  3 -  4) =      3.29125  eV     2   --> E    G_5 D_5   
     e(  5 -  5) =      6.54742  eV     1   --> A_1  G_1 D_1   
     e(  6 -  6) =      7.28065  eV     1   --> B_2  G_4 D_2'  
     e(  7 -  8) =     14.28010  eV     2   --> E    G_5 D_5   

 **************************************************************************

 **************************************************************************

                    xk=(   0.83333,   0.00000,   0.00000  )

     Band symmetry, C_4v (4mm)  point group:

     e(  1 -  1) =     -2.99313  eV     1   --> A_1  G_1 D_1   
     e(  2 -  2) =     -0.49000  eV     1   --> B_2  G_4 D_2'  
     e(  3 -  4) =      3.24424  eV     2   --> E    G_5 D_5   
     e(  5 -  5) =      6.54021  eV     1   --> A_1  G_1 D_1   
     e(  6 -  6) =      7.14729  eV     1   --> B_2  G_4 D_2'  
     e(  7 -  8) =     14.58625  eV     2   --> E    G_5 D_5   

 **************************************************************************

 **************************************************************************

                    xk=(   0.86667,   0.00000,   0.00000  )

     Band symmetry, C_4v (4mm)  point group:

     e(  1 -  1) =     -2.77010  eV     1   --> A_1  G_1 D_1   
     e(  2 -  2) =     -0.76368  eV     1   --> B_2  G_4 D_2'  
     e(  3 -  4) =      3.20569  eV     2   --> E    G_5 D_5   
     e(  5 -  5) =      6.54458  eV     1   --> A_1  G_1 D_1   
     e(  6 -  6) =      7.02760  eV     1   --> B_2  G_4 D_2'  
     e(  7 -  8) =     14.88964  eV     2   --> E    G_5 D_5   

 **************************************************************************

 **************************************************************************

                    xk=(   0.90000,   0.00000,   0.00000  )

     Band symmetry, C_4v (4mm)  point group:

     e(  1 -  1) =     -2.54020  eV     1   --> A_1  G_1 D_1   
     e(  2 -  2) =     -1.03310  eV     1   --> B_2  G_4 D_2'  
     e(  3 -  4) =      3.17566  eV     2   --> E    G_5 D_5   
     e(  5 -  5) =      6.56080  eV     1   --> A_1  G_1 D_1   
     e(  6 -  6) =      6.92151  eV     1   --> B_2  G_4 D_2'  
     e(  7 -  8) =     15.18538  eV     2   --> E    G_5 D_5   

 **************************************************************************

 **************************************************************************

                    xk=(   0.93333,   0.00000,   0.00000  )

     Band symmetry, C_4v (4mm)  point group:

     e(  1 -  1) =     -2.30373  eV     1   --> A_1  G_1 D_1   
     e(  2 -  2) =     -1.29790  eV     1   --> B_2  G_4 D_2'  
     e(  3 -  4) =      3.15419  eV     2   --> E    G_5 D_5   
     e(  5 -  5) =      6.58915  eV     1   --> A_1  G_1 D_1   
     e(  6 -  6) =      6.82888  eV     1   --> B_2  G_4 D_2'  
     e(  7 -  8) =     15.46183  eV     2   --> E    G_5 D_5   

 **************************************************************************

 **************************************************************************

                    xk=(   0.96667,   0.00000,   0.00000  )

     Band symmetry, C_4v (4mm)  point group:

     e(  1 -  1) =     -2.06093  eV     1   --> A_1  G_1 D_1   
     e(  2 -  2) =     -1.55770  eV     1   --> B_2  G_4 D_2'  
     e(  3 -  4) =      3.14129  eV     2   --> E    G_5 D_5   
     e(  5 -  5) =      6.62990  eV     1   --> A_1  G_1 D_1   
     e(  6 -  6) =      6.74953  eV     1   --> B_2  G_4 D_2'  
     e(  7 -  8) =     15.68742  eV     2   --> E    G_5 D_5   

 **************************************************************************

 **************************************************************************

                    xk=(   1.00000,   0.00000,   0.00000  )

     zone border point and non-symmorphic group 
     symmetry decomposition not available

 **************************************************************************

 **************************************************************************

                    xk=(   1.00000,   0.02500,   0.02500  )

     zone border point and non-symmorphic group 
     symmetry decomposition not available

 **************************************************************************

 **************************************************************************

                    xk=(   1.00000,   0.05000,   0.05000  )

     zone border point and non-symmorphic group 
     symmetry decomposition not available

 **************************************************************************

 **************************************************************************

                    xk=(   1.00000,   0.07500,   0.07500  )

     zone border point and non-symmorphic group 
     symmetry decomposition not available

 **************************************************************************

 **************************************************************************

                    xk=(   1.00000,   0.10000,   0.10000  )

     zone border point and non-symmorphic group 
     symmetry decomposition not available

 **************************************************************************

 **************************************************************************

                    xk=(   1.00000,   0.12500,   0.12500  )

     zone border point and non-symmorphic group 
     symmetry decomposition not available

 **************************************************************************

 **************************************************************************

                    xk=(   1.00000,   0.15000,   0.15000  )

     zone border point and non-symmorphic group 
     symmetry decomposition not available

 **************************************************************************

 **************************************************************************

                    xk=(   1.00000,   0.17500,   0.17500  )

     zone border point and non-symmorphic group 
     symmetry decomposition not available

 **************************************************************************

 **************************************************************************

                    xk=(   1.00000,   0.20000,   0.20000  )

     zone border point and non-symmorphic group 
     symmetry decomposition not available

 **************************************************************************

 **************************************************************************

                    xk=(   1.00000,   0.22500,   0.22500  )

     zone border point and non-symmorphic group 
     symmetry decomposition not available

 **************************************************************************

 **************************************************************************

                    xk=(   1.00000,   0.25000,   0.25000  )

     zone border point and non-symmorphic group 
     symmetry decomposition not available

 **************************************************************************

 **************************************************************************

                    xk=(   0.96667,   0.24167,   0.24167  )

     point group C_s (m)    
     there are  2 classes
     the character table:

       E     s    
A'     1.00  1.00
A''    1.00 -1.00

     the symmetry operations in each class and the name of the first element:

     E        1
                                                                 
     s        2
                                                                 

     Band symmetry, C_s (m)     point group:

     e(  1 -  1) =     -2.23022  eV     1   --> A'             
     e(  2 -  2) =     -1.23414  eV     1   --> A'             
     e(  3 -  3) =      1.78746  eV     1   --> A'             
     e(  4 -  4) =      3.53065  eV     1   --> A''            
     e(  5 -  5) =      7.13710  eV     1   --> A'             
     e(  6 -  6) =      9.86837  eV     1   --> A'             
     e(  7 -  7) =     13.29680  eV     1   --> A''            
     e(  8 -  8) =     13.64633  eV     1   --> A'             

 **************************************************************************

 **************************************************************************

                    xk=(   0.93333,   0.23333,   0.23333  )

     Band symmetry, C_s (m)     point group:

     e(  1 -  1) =     -2.31236  eV     1   --> A'             
     e(  2 -  2) =     -1.16003  eV     1   --> A'             
     e(  3 -  3) =      1.85760  eV     1   --> A'             
     e(  4 -  4) =      3.51677  eV     1   --> A''            
     e(  5 -  5) =      7.12425  eV     1   --> A'             
     e(  6 -  6) =      9.72320  eV     1   --> A'             
     e(  7 -  7) =     13.22349  eV     1   --> A''            
     e(  8 -  8) =     13.42674  eV     1   --> A'             

 **************************************************************************

 **************************************************************************

                    xk=(   0.90000,   0.22500,   0.22500  )

     Band symmetry, C_s (m)     point group:

     e(  1 -  1) =     -2.45281  eV     1   --> A'             
     e(  2 -  2) =     -1.02689  eV     1   --> A'             
     e(  3 -  3) =      1.95073  eV     1   --> A'             
     e(  4 -  4) =      3.51177  eV     1   --> A''            
     e(  5 -  5) =      7.12321  eV     1   --> A'             
     e(  6 -  6) =      9.59219  eV     1   --> A'             
     e(  7 -  7) =     13.10119  eV     1   --> A''            
     e(  8 -  8) =     13.20588  eV     1   --> A'             

 **************************************************************************

 **************************************************************************

                    xk=(   0.86667,   0.21667,   0.21667  )

     Band symmetry, C_s (m)     point group:

     e(  1 -  1) =     -2.62682  eV     1   --> A'             
     e(  2 -  2) =     -0.85637  eV     1   --> A'             
     e(  3 -  3) =      2.06338  eV     1   --> A'             
     e(  4 -  4) =      3.51575  eV     1   --> A''            
     e(  5 -  5) =      7.13354  eV     1   --> A'             
     e(  6 -  6) =      9.47627  eV     1   --> A'             
     e(  7 -  7) =     12.95907  eV     1   --> A''            
     e(  8 -  8) =     12.98592  eV     1   --> A'             

 **************************************************************************

 **************************************************************************

                    xk=(   0.83333,   0.20833,   0.20833  )

     Band symmetry, C_s (m)     point group:

     e(  1 -  1) =     -2.81823  eV     1   --> A'             
     e(  2 -  2) =     -0.66202  eV     1   --> A'             
     e(  3 -  3) =      2.19255  eV     1   --> A'             
     e(  4 -  4) =      3.52881  eV     1   --> A''            
     e(  5 -  5) =      7.15460  eV     1   --> A'             
     e(  6 -  6) =      9.37648  eV     1   --> A'             
     e(  7 -  7) =     12.76749  eV     1   --> A'             
     e(  8 -  8) =     12.80939  eV     1   --> A''            

 **************************************************************************

 **************************************************************************

                    xk=(   0.80000,   0.20000,   0.20000  )

     Band symmetry, C_s (m)     point group:

     e(  1 -  1) =     -3.01780  eV     1   --> A'             
     e(  2 -  2) =     -0.45102  eV     1   --> A'             
     e(  3 -  3) =      2.33570  eV     1   --> A'             
     e(  4 -  4) =      3.55102  eV     1   --> A''            
     e(  5 -  5) =      7.18545  eV     1   --> A'             
     e(  6 -  6) =      9.29408  eV     1   --> A'             
     e(  7 -  7) =     12.55089  eV     1   --> A'             
     e(  8 -  8) =     12.65719  eV     1   --> A''            

 **************************************************************************

 **************************************************************************

                    xk=(   0.76667,   0.19167,   0.19167  )

     Band symmetry, C_s (m)     point group:

     e(  1 -  1) =     -3.22008  eV     1   --> A'             
     e(  2 -  2) =     -0.22718  eV     1   --> A'             
     e(  3 -  3) =      2.49061  eV     1   --> A'             
     e(  4 -  4) =      3.58239  eV     1   --> A''            
     e(  5 -  5) =      7.22489  eV     1   --> A'             
     e(  6 -  6) =      9.23051  eV     1   --> A'             
     e(  7 -  7) =     12.33632  eV     1   --> A'             
     e(  8 -  8) =     12.50447  eV     1   --> A''            

 **************************************************************************

 **************************************************************************

                    xk=(   0.73333,   0.18333,   0.18333  )

     Band symmetry, C_s (m)     point group:

     e(  1 -  1) =     -3.42164  eV     1   --> A'             
     e(  2 -  2) =      0.00735  eV     1   --> A'             
     e(  3 -  3) =      2.65534  eV     1   --> A'             
     e(  4 -  4) =      3.62294  eV     1   --> A''            
     e(  5 -  5) =      7.27137  eV     1   --> A'             
     e(  6 -  6) =      9.18742  eV     1   --> A'             
     e(  7 -  7) =     12.12396  eV     1   --> A'             
     e(  8 -  8) =     12.35168  eV     1   --> A''            

 **************************************************************************

 **************************************************************************

                    xk=(   0.70000,   0.17500,   0.17500  )

     Band symmetry, C_s (m)     point group:

     e(  1 -  1) =     -3.62016  eV     1   --> A'             
     e(  2 -  2) =      0.25131  eV     1   --> A'             
     e(  3 -  3) =      2.82814  eV     1   --> A'             
     e(  4 -  4) =      3.67266  eV     1   --> A''            
     e(  5 -  5) =      7.32310  eV     1   --> A'             
     e(  6 -  6) =      9.16656  eV     1   --> A'             
     e(  7 -  7) =     11.91404  eV     1   --> A'             
     e(  8 -  8) =     12.19841  eV     1   --> A''            

 **************************************************************************

 **************************************************************************

                    xk=(   0.66667,   0.16667,   0.16667  )

     Band symmetry, C_s (m)     point group:

     e(  1 -  1) =     -3.81402  eV     1   --> A'             
     e(  2 -  2) =      0.50385  eV     1   --> A'             
     e(  3 -  3) =      3.00742  eV     1   --> A'             
     e(  4 -  4) =      3.73148  eV     1   --> A''            
     e(  5 -  5) =      7.37813  eV     1   --> A'             
     e(  6 -  6) =      9.16962  eV     1   --> A'             
     e(  7 -  7) =     11.70691  eV     1   --> A'             
     e(  8 -  8) =     12.04373  eV     1   --> A''            

 **************************************************************************

 **************************************************************************

                    xk=(   0.63333,   0.15833,   0.15833  )

     Band symmetry, C_s (m)     point group:

     e(  1 -  1) =     -4.00202  eV     1   --> A'             
     e(  2 -  2) =      0.76442  eV     1   --> A'             
     e(  3 -  3) =      3.19173  eV     1   --> A'             
     e(  4 -  4) =      3.79934  eV     1   --> A''            
     e(  5 -  5) =      7.43455  eV     1   --> A'             
     e(  6 -  6) =      9.19788  eV     1   --> A'             
     e(  7 -  7) =     11.50308  eV     1   --> A'             
     e(  8 -  8) =     11.88629  eV     1   --> A''            

 **************************************************************************

 **************************************************************************

                    xk=(   0.60000,   0.15000,   0.15000  )

     Band symmetry, C_s (m)     point group:

     e(  1 -  1) =     -4.18324  eV     1   --> A'             
     e(  2 -  2) =      1.03258  eV     1   --> A'             
     e(  3 -  3) =      3.37970  eV     1   --> A'             
     e(  4 -  4) =      3.87612  eV     1   --> A''            
     e(  5 -  5) =      7.49083  eV     1   --> A'             
     e(  6 -  6) =      9.25176  eV     1   --> A'             
     e(  7 -  7) =     11.30341  eV     1   --> A'             
     e(  8 -  8) =     11.72452  eV     1   --> A''            

 **************************************************************************

 **************************************************************************

                    xk=(   0.56667,   0.14167,   0.14167  )

     Band symmetry, C_s (m)     point group:

     e(  1 -  1) =     -4.35696  eV     1   --> A'             
     e(  2 -  2) =      1.30798  eV     1   --> A'             
     e(  3 -  3) =      3.57004  eV     1   --> A'             
     e(  4 -  4) =      3.96168  eV     1   --> A''            
     e(  5 -  5) =      7.54599  eV     1   --> A'             
     e(  6 -  6) =      9.33020  eV     1   --> A'             
     e(  7 -  7) =     11.10929  eV     1   --> A'             
     e(  8 -  8) =     11.55672  eV     1   --> A''            

 **************************************************************************

 **************************************************************************

                    xk=(   0.53333,   0.13333,   0.13333  )

     Band symmetry, C_s (m)     point group:

     e(  1 -  1) =     -4.52261  eV     1   --> A'             
     e(  2 -  2) =      1.59028  eV     1   --> A'             
     e(  3 -  3) =      3.76153  eV     1   --> A'             
     e(  4 -  4) =      4.05584  eV     1   --> A''            
     e(  5 -  5) =      7.59983  eV     1   --> A'             
     e(  6 -  6) =      9.42987  eV     1   --> A'             
     e(  7 -  7) =     10.92327  eV     1   --> A'             
     e(  8 -  8) =     11.38128  eV     1   --> A''            

 **************************************************************************

 **************************************************************************

                    xk=(   0.50000,   0.12500,   0.12500  )

     Band symmetry, C_s (m)     point group:

     e(  1 -  1) =     -4.67974  eV     1   --> A'             
     e(  2 -  2) =      1.87915  eV     1   --> A'             
     e(  3 -  3) =      3.95300  eV     1   --> A'             
     e(  4 -  4) =      4.15833  eV     1   --> A''            
     e(  5 -  5) =      7.65280  eV     1   --> A'             
     e(  6 -  6) =      9.54361  eV     1   --> A'             
     e(  7 -  7) =     10.75029  eV     1   --> A'             
     e(  8 -  8) =     11.19686  eV     1   --> A''            

 **************************************************************************

 **************************************************************************

                    xk=(   0.46667,   0.11667,   0.11667  )

     Band symmetry, C_s (m)     point group:

     e(  1 -  1) =     -4.82796  eV     1   --> A'             
     e(  2 -  2) =      2.17419  eV     1   --> A'             
     e(  3 -  3) =      4.14333  eV     1   --> A'             
     e(  4 -  4) =      4.26886  eV     1   --> A''            
     e(  5 -  5) =      7.70583  eV     1   --> A'             
     e(  6 -  6) =      9.65696  eV     1   --> A'             
     e(  7 -  7) =     10.60104  eV     1   --> A'             
     e(  8 -  8) =     11.00266  eV     1   --> A''            

 **************************************************************************

 **************************************************************************

                    xk=(   0.43333,   0.10833,   0.10833  )

     Band symmetry, C_s (m)     point group:

     e(  1 -  1) =     -4.96696  eV     1   --> A'             
     e(  2 -  2) =      2.47500  eV     1   --> A'             
     e(  3 -  3) =      4.33141  eV     1   --> A'             
     e(  4 -  4) =      4.38704  eV     1   --> A''            
     e(  5 -  5) =      7.76003  eV     1   --> A'             
     e(  6 -  6) =      9.74095  eV     1   --> A'             
     e(  7 -  7) =     10.49863  eV     1   --> A'             
     e(  8 -  8) =     10.79855  eV     1   --> A''            

 **************************************************************************

 **************************************************************************

                    xk=(   0.40000,   0.10000,   0.10000  )

     Band symmetry, C_s (m)     point group:

     e(  1 -  1) =     -5.09647  eV     1   --> A'             
     e(  2 -  2) =      2.78102  eV     1   --> A'             
     e(  3 -  3) =      4.51238  eV     1   --> A''            
     e(  4 -  4) =      4.51612  eV     1   --> A'             
     e(  5 -  5) =      7.81645  eV     1   --> A'             
     e(  6 -  6) =      9.75351  eV     1   --> A'             
     e(  7 -  7) =     10.47585  eV     1   --> A'             
     e(  8 -  8) =     10.58522  eV     1   --> A''            

 **************************************************************************

 **************************************************************************

                    xk=(   0.36667,   0.09167,   0.09167  )

     Band symmetry, C_s (m)     point group:

     e(  1 -  1) =     -5.21628  eV     1   --> A'             
     e(  2 -  2) =      3.09158  eV     1   --> A'             
     e(  3 -  3) =      4.64422  eV     1   --> A''            
     e(  4 -  4) =      4.69633  eV     1   --> A'             
     e(  5 -  5) =      7.87587  eV     1   --> A'             
     e(  6 -  6) =      9.68346  eV     1   --> A'             
     e(  7 -  7) =     10.36413  eV     1   --> A''            
     e(  8 -  8) =     10.52847  eV     1   --> A'             

 **************************************************************************

 **************************************************************************

                    xk=(   0.33333,   0.08333,   0.08333  )

     Band symmetry, C_s (m)     point group:

     e(  1 -  1) =     -5.32618  eV     1   --> A'             
     e(  2 -  2) =      3.40582  eV     1   --> A'             
     e(  3 -  3) =      4.78176  eV     1   --> A''            
     e(  4 -  4) =      4.87083  eV     1   --> A'             
     e(  5 -  5) =      7.93869  eV     1   --> A'             
     e(  6 -  6) =      9.56427  eV     1   --> A'             
     e(  7 -  7) =     10.13748  eV     1   --> A''            
     e(  8 -  8) =     10.59688  eV     1   --> A'             

 **************************************************************************

 **************************************************************************

                    xk=(   0.30000,   0.07500,   0.07500  )

     Band symmetry, C_s (m)     point group:

     e(  1 -  1) =     -5.42605  eV     1   --> A'             
     e(  2 -  2) =      3.72253  eV     1   --> A'             
     e(  3 -  3) =      4.92392  eV     1   --> A''            
     e(  4 -  4) =      5.03833  eV     1   --> A'             
     e(  5 -  5) =      8.00482  eV     1   --> A'             
     e(  6 -  6) =      9.42560  eV     1   --> A'             
     e(  7 -  7) =      9.90805  eV     1   --> A''            
     e(  8 -  8) =     10.61283  eV     1   --> A'             

 **************************************************************************

 **************************************************************************

                    xk=(   0.26667,   0.06667,   0.06667  )

     Band symmetry, C_s (m)     point group:

     e(  1 -  1) =     -5.51571  eV     1   --> A'             
     e(  2 -  2) =      4.04014  eV     1   --> A'             
     e(  3 -  3) =      5.06926  eV     1   --> A''            
     e(  4 -  4) =      5.19738  eV     1   --> A'             
     e(  5 -  5) =      8.07363  eV     1   --> A'             
     e(  6 -  6) =      9.28205  eV     1   --> A'             
     e(  7 -  7) =      9.67908  eV     1   --> A''            
     e(  8 -  8) =     10.52884  eV     1   --> A'             

 **************************************************************************

 **************************************************************************

                    xk=(   0.23333,   0.05833,   0.05833  )

     Band symmetry, C_s (m)     point group:

     e(  1 -  1) =     -5.59507  eV     1   --> A'             
     e(  2 -  2) =      4.35640  eV     1   --> A'             
     e(  3 -  3) =      5.21587  eV     1   --> A''            
     e(  4 -  4) =      5.34636  eV     1   --> A'             
     e(  5 -  5) =      8.14390  eV     1   --> A'             
     e(  6 -  6) =      9.14064  eV     1   --> A'             
     e(  7 -  7) =      9.45429  eV     1   --> A''            
     e(  8 -  8) =     10.34458  eV     1   --> A'             

 **************************************************************************

 **************************************************************************

                    xk=(   0.20000,   0.05000,   0.05000  )

     Band symmetry, C_s (m)     point group:

     e(  1 -  1) =     -5.66403  eV     1   --> A'             
     e(  2 -  2) =      4.66804  eV     1   --> A'             
     e(  3 -  3) =      5.36115  eV     1   --> A''            
     e(  4 -  4) =      5.48339  eV     1   --> A'             
     e(  5 -  5) =      8.21382  eV     1   --> A'             
     e(  6 -  6) =      9.00530  eV     1   --> A'             
     e(  7 -  7) =      9.23795  eV     1   --> A''            
     e(  8 -  8) =     10.09643  eV     1   --> A'             

 **************************************************************************

 **************************************************************************

                    xk=(   0.16667,   0.04167,   0.04167  )

     Band symmetry, C_s (m)     point group:

     e(  1 -  1) =     -5.72250  eV     1   --> A'             
     e(  2 -  2) =      4.97021  eV     1   --> A'             
     e(  3 -  3) =      5.50154  eV     1   --> A''            
     e(  4 -  4) =      5.60629  eV     1   --> A'             
     e(  5 -  5) =      8.28093  eV     1   --> A'             
     e(  6 -  6) =      8.87854  eV     1   --> A'             
     e(  7 -  7) =      9.03505  eV     1   --> A''            
     e(  8 -  8) =      9.82266  eV     1   --> A'             

 **************************************************************************

 **************************************************************************

                    xk=(   0.13333,   0.03333,   0.03333  )

     Band symmetry, C_s (m)     point group:

     e(  1 -  1) =     -5.77043  eV     1   --> A'             
     e(  2 -  2) =      5.25550  eV     1   --> A'             
     e(  3 -  3) =      5.63227  eV     1   --> A''            
     e(  4 -  4) =      5.71257  eV     1   --> A'             
     e(  5 -  5) =      8.34231  eV     1   --> A'             
     e(  6 -  6) =      8.76187  eV     1   --> A'             
     e(  7 -  7) =      8.85160  eV     1   --> A''            
     e(  8 -  8) =      9.55258  eV     1   --> A'             

 **************************************************************************

 **************************************************************************

                    xk=(   0.10000,   0.02500,   0.02500  )

     Band symmetry, C_s (m)     point group:

     e(  1 -  1) =     -5.80776  eV     1   --> A'             
     e(  2 -  2) =      5.51245  eV     1   --> A'             
     e(  3 -  3) =      5.74702  eV     1   --> A''            
     e(  4 -  4) =      5.79951  eV     1   --> A'             
     e(  5 -  5) =      8.39470  eV     1   --> A'             
     e(  6 -  6) =      8.65623  eV     1   --> A'             
     e(  7 -  7) =      8.69484  eV     1   --> A''            
     e(  8 -  8) =      9.31088  eV     1   --> A'             

 **************************************************************************

 **************************************************************************

                    xk=(   0.06667,   0.01667,   0.01667  )

     Band symmetry, C_s (m)     point group:

     e(  1 -  1) =     -5.83446  eV     1   --> A'             
     e(  2 -  2) =      5.72391  eV     1   --> A'             
     e(  3 -  3) =      5.83812  eV     1   --> A''            
     e(  4 -  4) =      5.86428  eV     1   --> A'             
     e(  5 -  5) =      8.43487  eV     1   --> A'             
     e(  6 -  6) =      8.56408  eV     1   --> A'             
     e(  7 -  7) =      8.57324  eV     1   --> A''            
     e(  8 -  8) =      9.12132  eV     1   --> A'             

 **************************************************************************

 **************************************************************************

                    xk=(   0.03333,   0.00833,   0.00833  )

     Band symmetry, C_s (m)     point group:

     e(  1 -  1) =     -5.85048  eV     1   --> A'             
     e(  2 -  2) =      5.86682  eV     1   --> A'             
     e(  3 -  3) =      5.89732  eV     1   --> A''            
     e(  4 -  4) =      5.90436  eV     1   --> A'             
     e(  5 -  5) =      8.46011  eV     1   --> A'             
     e(  6 -  6) =      8.49529  eV     1   --> A'             
     e(  7 -  7) =      8.49552  eV     1   --> A''            
     e(  8 -  8) =      9.00288  eV     1   --> A'             

 **************************************************************************

 **************************************************************************

                    xk=(   0.00000,   0.00000,   0.00000  )

     point group O_h (m-3m) 
     there are 10 classes
     the character table:

       E     8C3   3C2   6C4   6C2'  i     8S6   3s_h  6S4   6s_d 
A_1g   1.00  1.00  1.00  1.00  1.00  1.00  1.00  1.00  1.00  1.00
A_2g   1.00  1.00  1.00 -1.00 -1.00  1.00  1.00  1.00 -1.00 -1.00
E_g    2.00 -1.00  2.00  0.00  0.00  2.00 -1.00  2.00  0.00  0.00
T_1g   3.00  0.00 -1.00  1.00 -1.00  3.00  0.00 -1.00  1.00 -1.00
T_2g   3.00  0.00 -1.00 -1.00  1.00  3.00  0.00 -1.00 -1.00  1.00
A_1u   1.00  1.00  1.00  1.00  1.00 -1.00 -1.00 -1.00 -1.00 -1.00
A_2u   1.00  1.00  1.00 -1.00 -1.00 -1.00 -1.00 -1.00  1.00  1.00
E_u    2.00 -1.00  2.00  0.00  0.00 -2.00  1.00 -2.00  0.00  0.00
T_1u   3.00  0.00 -1.00  1.00 -1.00 -3.00  0.00  1.00 -1.00  1.00
T_2u   3.00  0.00 -1.00 -1.00  1.00 -3.00  0.00  1.00  1.00 -1.00

     the symmetry operations in each class and the name of the first element:

     E        1
                                                                 
     8C3     17   19   20   18   24   21   22   23
                                                                 
     3C2      2    4    3
                                                                 
     6C4      7    8   15   16   12   11
                                                                 
     6C2'     5    6   14   13   10    9
                                                                 
     i       25
                                                                 
     8S6     41   43   44   42   48   45   46   47
                                                                 
     3s_h    26   28   27
                                                                 
     6S4     31   32   39   40   36   35
                                                                 
     6s_d    29   30   38   37   34   33
                                                                 

     Band symmetry, O_h (m-3m)  point group:

     e(  1 -  1) =     -5.85583  eV     1   --> A_1g G_1   G_1+
     e(  2 -  4) =      5.91794  eV     3   --> T_2g G_25' G_5+
     e(  5 -  7) =      8.46870  eV     3   --> T_1u G_15  G_4-
     e(  8 -  8) =      8.96324  eV     1   --> A_2u G_2'  G_2-

 **************************************************************************

     BANDS        :      3.00s CPU      4.05s WALL


   This run was terminated on:  22:38:10  17Dec2021            

=------------------------------------------------------------------------------=
   JOB DONE.
=------------------------------------------------------------------------------=
