
     Program PWSCF v.6.8 starts on 17Dec2021 at 22:34:22 

     This program is part of the open-source Quantum ESPRESSO suite
     for quantum simulation of materials; please cite
         "P. Giannozzi et al., J. Phys.:Condens. Matter 21 395502 (2009);
         "P. Giannozzi et al., J. Phys.:Condens. Matter 29 465901 (2017);
         "P. Giannozzi et al., J. Chem. Phys. 152 154105 (2020);
          URL http://www.quantum-espresso.org", 
     in publications or presentations arising from this work. More details at
     http://www.quantum-espresso.org/quote

     Parallel version (MPI), running on     6 processors

     MPI processes distributed on     1 nodes
     R & G space division:  proc/nbgrp/npool/nimage =       6
     10828 MiB available memory on the printing compute node when the environment starts

     Reading input from si.bands.in

     Current dimensions of program PWSCF are:
     Max number of different atomic species (ntypx) = 10
     Max number of k-points (npk) =  40000
     Max angular momentum in pseudopotentials (lmaxx) =  4

     Atomic positions and unit cell read from directory:
     ../out/si.save/


     Subspace diagonalization in iterative solution of the eigenvalue problem:
     a serial algorithm will be used


     Parallelization info
     --------------------
     sticks:   dense  smooth     PW     G-vecs:    dense   smooth      PW
     Min         195      97     30                 4468     1567     265
     Max         197      98     32                 4469     1571     266
     Sum        1177     583    187                26813     9409    1591

     Using Slab Decomposition



     bravais-lattice index     =            2
     lattice parameter (alat)  =      10.3576  a.u.
     unit-cell volume          =     277.7899 (a.u.)^3
     number of atoms/cell      =            2
     number of atomic types    =            1
     number of electrons       =         8.00
     number of Kohn-Sham states=            8
     kinetic-energy cutoff     =      40.0000  Ry
     charge density cutoff     =     320.0000  Ry
     Exchange-correlation= PBE
                           (   1   4   3   4   0   0   0)

     celldm(1)=  10.357592  celldm(2)=   0.000000  celldm(3)=   0.000000
     celldm(4)=   0.000000  celldm(5)=   0.000000  celldm(6)=   0.000000

     crystal axes: (cart. coord. in units of alat)
               a(1) = (  -0.500000   0.000000   0.500000 )  
               a(2) = (   0.000000   0.500000   0.500000 )  
               a(3) = (  -0.500000   0.500000   0.000000 )  

     reciprocal axes: (cart. coord. in units 2 pi/alat)
               b(1) = ( -1.000000 -1.000000  1.000000 )  
               b(2) = (  1.000000  1.000000  1.000000 )  
               b(3) = ( -1.000000  1.000000 -1.000000 )  


     PseudoPot. # 1 for Si read from file:
     /home/pratham007/Downloads/SSSP_1.1.2_PBE_precision/Si.pbe-n-rrkjus_psl.1.0.0.UPF
     MD5 check sum: 0b0bb1205258b0d07b9f9672cf965d36
     Pseudo is Ultrasoft + core correction, Zval =  4.0
     Generated using "atomic" code by A. Dal Corso  v.5.1
     Using radial grid of 1141 points,  6 beta functions with: 
                l(1) =   0
                l(2) =   0
                l(3) =   1
                l(4) =   1
                l(5) =   2
                l(6) =   2
     Q(r) pseudized with 0 coefficients 


     atomic species   valence    mass     pseudopotential
        Si             4.00    28.08550     Si( 1.00)

     48 Sym. Ops., with inversion, found (24 have fractional translation)



   Cartesian axes

     site n.     atom                  positions (alat units)
         1           Si  tau(   1) = (   0.0000000   0.0000000   0.0000000  )
         2           Si  tau(   2) = (   0.2500000   0.2500000   0.2500000  )

     number of k points=    91
                       cart. coord. in units 2pi/alat
        k(    1) = (   0.5000000   0.5000000   0.5000000), wk =   0.0219780
        k(    2) = (   0.4750000   0.4750000   0.4750000), wk =   0.0219780
        k(    3) = (   0.4500000   0.4500000   0.4500000), wk =   0.0219780
        k(    4) = (   0.4250000   0.4250000   0.4250000), wk =   0.0219780
        k(    5) = (   0.4000000   0.4000000   0.4000000), wk =   0.0219780
        k(    6) = (   0.3750000   0.3750000   0.3750000), wk =   0.0219780
        k(    7) = (   0.3500000   0.3500000   0.3500000), wk =   0.0219780
        k(    8) = (   0.3250000   0.3250000   0.3250000), wk =   0.0219780
        k(    9) = (   0.3000000   0.3000000   0.3000000), wk =   0.0219780
        k(   10) = (   0.2750000   0.2750000   0.2750000), wk =   0.0219780
        k(   11) = (   0.2500000   0.2500000   0.2500000), wk =   0.0219780
        k(   12) = (   0.2250000   0.2250000   0.2250000), wk =   0.0219780
        k(   13) = (   0.2000000   0.2000000   0.2000000), wk =   0.0219780
        k(   14) = (   0.1750000   0.1750000   0.1750000), wk =   0.0219780
        k(   15) = (   0.1500000   0.1500000   0.1500000), wk =   0.0219780
        k(   16) = (   0.1250000   0.1250000   0.1250000), wk =   0.0219780
        k(   17) = (   0.1000000   0.1000000   0.1000000), wk =   0.0219780
        k(   18) = (   0.0750000   0.0750000   0.0750000), wk =   0.0219780
        k(   19) = (   0.0500000   0.0500000   0.0500000), wk =   0.0219780
        k(   20) = (   0.0250000   0.0250000   0.0250000), wk =   0.0219780
        k(   21) = (   0.0000000   0.0000000   0.0000000), wk =   0.0219780
        k(   22) = (   0.0333333   0.0000000   0.0000000), wk =   0.0219780
        k(   23) = (   0.0666667   0.0000000   0.0000000), wk =   0.0219780
        k(   24) = (   0.1000000   0.0000000   0.0000000), wk =   0.0219780
        k(   25) = (   0.1333333   0.0000000   0.0000000), wk =   0.0219780
        k(   26) = (   0.1666667   0.0000000   0.0000000), wk =   0.0219780
        k(   27) = (   0.2000000   0.0000000   0.0000000), wk =   0.0219780
        k(   28) = (   0.2333333   0.0000000   0.0000000), wk =   0.0219780
        k(   29) = (   0.2666667   0.0000000   0.0000000), wk =   0.0219780
        k(   30) = (   0.3000000   0.0000000   0.0000000), wk =   0.0219780
        k(   31) = (   0.3333333   0.0000000   0.0000000), wk =   0.0219780
        k(   32) = (   0.3666667   0.0000000   0.0000000), wk =   0.0219780
        k(   33) = (   0.4000000   0.0000000   0.0000000), wk =   0.0219780
        k(   34) = (   0.4333333   0.0000000   0.0000000), wk =   0.0219780
        k(   35) = (   0.4666667   0.0000000   0.0000000), wk =   0.0219780
        k(   36) = (   0.5000000   0.0000000   0.0000000), wk =   0.0219780
        k(   37) = (   0.5333333   0.0000000   0.0000000), wk =   0.0219780
        k(   38) = (   0.5666667   0.0000000   0.0000000), wk =   0.0219780
        k(   39) = (   0.6000000   0.0000000   0.0000000), wk =   0.0219780
        k(   40) = (   0.6333333   0.0000000   0.0000000), wk =   0.0219780
        k(   41) = (   0.6666667   0.0000000   0.0000000), wk =   0.0219780
        k(   42) = (   0.7000000   0.0000000   0.0000000), wk =   0.0219780
        k(   43) = (   0.7333333   0.0000000   0.0000000), wk =   0.0219780
        k(   44) = (   0.7666667   0.0000000   0.0000000), wk =   0.0219780
        k(   45) = (   0.8000000   0.0000000   0.0000000), wk =   0.0219780
        k(   46) = (   0.8333333   0.0000000   0.0000000), wk =   0.0219780
        k(   47) = (   0.8666667   0.0000000   0.0000000), wk =   0.0219780
        k(   48) = (   0.9000000   0.0000000   0.0000000), wk =   0.0219780
        k(   49) = (   0.9333333   0.0000000   0.0000000), wk =   0.0219780
        k(   50) = (   0.9666667   0.0000000   0.0000000), wk =   0.0219780
        k(   51) = (   1.0000000   0.0000000   0.0000000), wk =   0.0219780
        k(   52) = (   1.0000000   0.0250000   0.0250000), wk =   0.0219780
        k(   53) = (   1.0000000   0.0500000   0.0500000), wk =   0.0219780
        k(   54) = (   1.0000000   0.0750000   0.0750000), wk =   0.0219780
        k(   55) = (   1.0000000   0.1000000   0.1000000), wk =   0.0219780
        k(   56) = (   1.0000000   0.1250000   0.1250000), wk =   0.0219780
        k(   57) = (   1.0000000   0.1500000   0.1500000), wk =   0.0219780
        k(   58) = (   1.0000000   0.1750000   0.1750000), wk =   0.0219780
        k(   59) = (   1.0000000   0.2000000   0.2000000), wk =   0.0219780
        k(   60) = (   1.0000000   0.2250000   0.2250000), wk =   0.0219780
        k(   61) = (   1.0000000   0.2500000   0.2500000), wk =   0.0219780
        k(   62) = (   0.9666667   0.2416667   0.2416667), wk =   0.0219780
        k(   63) = (   0.9333333   0.2333333   0.2333333), wk =   0.0219780
        k(   64) = (   0.9000000   0.2250000   0.2250000), wk =   0.0219780
        k(   65) = (   0.8666667   0.2166667   0.2166667), wk =   0.0219780
        k(   66) = (   0.8333333   0.2083333   0.2083333), wk =   0.0219780
        k(   67) = (   0.8000000   0.2000000   0.2000000), wk =   0.0219780
        k(   68) = (   0.7666667   0.1916667   0.1916667), wk =   0.0219780
        k(   69) = (   0.7333333   0.1833333   0.1833333), wk =   0.0219780
        k(   70) = (   0.7000000   0.1750000   0.1750000), wk =   0.0219780
        k(   71) = (   0.6666667   0.1666667   0.1666667), wk =   0.0219780
        k(   72) = (   0.6333333   0.1583333   0.1583333), wk =   0.0219780
        k(   73) = (   0.6000000   0.1500000   0.1500000), wk =   0.0219780
        k(   74) = (   0.5666667   0.1416667   0.1416667), wk =   0.0219780
        k(   75) = (   0.5333333   0.1333333   0.1333333), wk =   0.0219780
        k(   76) = (   0.5000000   0.1250000   0.1250000), wk =   0.0219780
        k(   77) = (   0.4666667   0.1166667   0.1166667), wk =   0.0219780
        k(   78) = (   0.4333333   0.1083333   0.1083333), wk =   0.0219780
        k(   79) = (   0.4000000   0.1000000   0.1000000), wk =   0.0219780
        k(   80) = (   0.3666667   0.0916667   0.0916667), wk =   0.0219780
        k(   81) = (   0.3333333   0.0833333   0.0833333), wk =   0.0219780
        k(   82) = (   0.3000000   0.0750000   0.0750000), wk =   0.0219780
        k(   83) = (   0.2666667   0.0666667   0.0666667), wk =   0.0219780
        k(   84) = (   0.2333333   0.0583333   0.0583333), wk =   0.0219780
        k(   85) = (   0.2000000   0.0500000   0.0500000), wk =   0.0219780
        k(   86) = (   0.1666667   0.0416667   0.0416667), wk =   0.0219780
        k(   87) = (   0.1333333   0.0333333   0.0333333), wk =   0.0219780
        k(   88) = (   0.1000000   0.0250000   0.0250000), wk =   0.0219780
        k(   89) = (   0.0666667   0.0166667   0.0166667), wk =   0.0219780
        k(   90) = (   0.0333333   0.0083333   0.0083333), wk =   0.0219780
        k(   91) = (   0.0000000   0.0000000   0.0000000), wk =   0.0219780

     Dense  grid:    26813 G-vectors     FFT dimensions: (  48,  48,  48)

     Smooth grid:     9409 G-vectors     FFT dimensions: (  32,  32,  32)

     Estimated max dynamical RAM per process >      16.19 MB

     Estimated total dynamical RAM >      97.14 MB

     The potential is recalculated from file :
     ../out/si.save/charge-density

     Starting wfcs are    8 randomized atomic wfcs

     Band Structure Calculation
     Davidson diagonalization with overlap

     ethr =  1.25E-10,  avg # of iterations = 32.0

     total cpu time spent up to now is        2.7 secs

     End of band structure calculation

          k = 0.5000 0.5000 0.5000 (  1170 PWs)   bands (ev):

    -3.5941  -0.9253   4.7428   4.7428   7.3575   9.2705   9.2705  13.6156

          k = 0.4750 0.4750 0.4750 (  1182 PWs)   bands (ev):

    -3.6279  -0.8763   4.7472   4.7472   7.3626   9.2753   9.2753  13.6230

          k = 0.4500 0.4500 0.4500 (  1182 PWs)   bands (ev):

    -3.7223  -0.7365   4.7605   4.7605   7.3781   9.2893   9.2893  13.6443

          k = 0.4250 0.4250 0.4250 (  1182 PWs)   bands (ev):

    -3.8611  -0.5221   4.7826   4.7826   7.4039   9.3115   9.3115  13.6767

          k = 0.4000 0.4000 0.4000 (  1185 PWs)   bands (ev):

    -4.0274  -0.2502   4.8136   4.8136   7.4397   9.3397   9.3397  13.7141

          k = 0.3750 0.3750 0.3750 (  1179 PWs)   bands (ev):

    -4.2076   0.0654   4.8532   4.8532   7.4855   9.3712   9.3712  13.7422

          k = 0.3500 0.3500 0.3500 (  1176 PWs)   bands (ev):

    -4.3922   0.4147   4.9015   4.9015   7.5410   9.4019   9.4019  13.7296

          k = 0.3250 0.3250 0.3250 (  1176 PWs)   bands (ev):

    -4.5750   0.7911   4.9582   4.9582   7.6058   9.4265   9.4265  13.6182

          k = 0.3000 0.3000 0.3000 (  1188 PWs)   bands (ev):

    -4.7516   1.1896   5.0231   5.0231   7.6794   9.4389   9.4389  13.3678

          k = 0.2750 0.2750 0.2750 (  1191 PWs)   bands (ev):

    -4.9192   1.6067   5.0957   5.0957   7.7611   9.4324   9.4324  13.0141

          k = 0.2500 0.2500 0.2500 (  1197 PWs)   bands (ev):

    -5.0759   2.0392   5.1754   5.1754   7.8499   9.4011   9.4011  12.6081

          k = 0.2250 0.2250 0.2250 (  1197 PWs)   bands (ev):

    -5.2201   2.4844   5.2613   5.2613   7.9445   9.3414   9.3414  12.1772

          k = 0.2000 0.2000 0.2000 (  1191 PWs)   bands (ev):

    -5.3510   2.9395   5.3524   5.3524   8.0431   9.2537   9.2537  11.7336

          k = 0.1750 0.1750 0.1750 (  1197 PWs)   bands (ev):

    -5.4677   3.4013   5.4469   5.4469   8.1435   9.1425   9.1425  11.2836

          k = 0.1500 0.1500 0.1500 (  1203 PWs)   bands (ev):

    -5.5697   3.8654   5.5427   5.5427   8.2424   9.0154   9.0154  10.8323

          k = 0.1250 0.1250 0.1250 (  1209 PWs)   bands (ev):

    -5.6566   4.3260   5.6367   5.6367   8.3357   8.8821   8.8821  10.3859

          k = 0.1000 0.1000 0.1000 (  1209 PWs)   bands (ev):

    -5.7280   4.7738   5.7249   5.7249   8.4175   8.7530   8.7530   9.9547

          k = 0.0750 0.0750 0.0750 (  1212 PWs)   bands (ev):

    -5.7838   5.1934   5.8027   5.8027   8.4791   8.6382   8.6382   9.5576

          k = 0.0500 0.0500 0.0500 (  1230 PWs)   bands (ev):

    -5.8238   5.5575   5.8643   5.8643   8.5069   8.5474   8.5474   9.2305

          k = 0.0250 0.0250 0.0250 (  1239 PWs)   bands (ev):

    -5.8478   5.8195   5.9041   5.9041   8.4889   8.4889   8.4905   9.0259

          k = 0.0000 0.0000 0.0000 (  1243 PWs)   bands (ev):

    -5.8558   5.9179   5.9179   5.9179   8.4687   8.4687   8.4687   8.9632

          k = 0.0333 0.0000 0.0000 (  1243 PWs)   bands (ev):

    -5.8511   5.8826   5.8976   5.8976   8.4569   8.4949   8.4949   8.9979

          k = 0.0667 0.0000 0.0000 (  1235 PWs)   bands (ev):

    -5.8368   5.7811   5.8389   5.8389   8.4221   8.5711   8.5711   9.0968

          k = 0.1000 0.0000 0.0000 (  1227 PWs)   bands (ev):

    -5.8131   5.6252   5.7484   5.7484   8.3661   8.6910   8.6910   9.2465

          k = 0.1333 0.0000 0.0000 (  1219 PWs)   bands (ev):

    -5.7799   5.4281   5.6336   5.6336   8.2917   8.8466   8.8466   9.4305

          k = 0.1667 0.0000 0.0000 (  1219 PWs)   bands (ev):

    -5.7372   5.2013   5.5020   5.5020   8.2019   9.0306   9.0306   9.6310

          k = 0.2000 0.0000 0.0000 (  1203 PWs)   bands (ev):

    -5.6851   4.9537   5.3597   5.3597   8.1001   9.2368   9.2368   9.8292

          k = 0.2333 0.0000 0.0000 (  1199 PWs)   bands (ev):

    -5.6236   4.6914   5.2112   5.2112   7.9895   9.4604   9.4604  10.0019

          k = 0.2667 0.0000 0.0000 (  1199 PWs)   bands (ev):

    -5.5528   4.4189   5.0600   5.0600   7.8732   9.6978   9.6978  10.1199

          k = 0.3000 0.0000 0.0000 (  1187 PWs)   bands (ev):

    -5.4726   4.1392   4.9088   4.9088   7.7537   9.9464   9.9464  10.1540

          k = 0.3333 0.0000 0.0000 (  1187 PWs)   bands (ev):

    -5.3832   3.8543   4.7593   4.7593   7.6332  10.0925  10.2042  10.2042

          k = 0.3667 0.0000 0.0000 (  1195 PWs)   bands (ev):

    -5.2846   3.5658   4.6130   4.6130   7.5137   9.9508  10.4694  10.4694

          k = 0.4000 0.0000 0.0000 (  1191 PWs)   bands (ev):

    -5.1769   3.2748   4.4711   4.4711   7.3969   9.7562  10.7411  10.7411

          k = 0.4333 0.0000 0.0000 (  1190 PWs)   bands (ev):

    -5.0601   2.9820   4.3343   4.3343   7.2841   9.5325  11.0181  11.0181

          k = 0.4667 0.0000 0.0000 (  1190 PWs)   bands (ev):

    -4.9344   2.6882   4.2032   4.2032   7.1764   9.2953  11.2997  11.2997

          k = 0.5000 0.0000 0.0000 (  1198 PWs)   bands (ev):

    -4.7998   2.3938   4.0786   4.0786   7.0749   9.0546  11.5854  11.5854

          k = 0.5333 0.0000 0.0000 (  1190 PWs)   bands (ev):

    -4.6564   2.0993   3.9606   3.9606   6.9804   8.8164  11.8747  11.8747

          k = 0.5667 0.0000 0.0000 (  1190 PWs)   bands (ev):

    -4.5043   1.8051   3.8498   3.8498   6.8936   8.5847  12.1671  12.1671

          k = 0.6000 0.0000 0.0000 (  1198 PWs)   bands (ev):

    -4.3437   1.5117   3.7463   3.7463   6.8152   8.3620  12.4625  12.4625

          k = 0.6333 0.0000 0.0000 (  1198 PWs)   bands (ev):

    -4.1747   1.2193   3.6505   3.6505   6.7457   8.1501  12.7604  12.7604

          k = 0.6667 0.0000 0.0000 (  1186 PWs)   bands (ev):

    -3.9974   0.9284   3.5624   3.5624   6.6856   7.9500  13.0608  13.0608

          k = 0.7000 0.0000 0.0000 (  1194 PWs)   bands (ev):

    -3.8120   0.6394   3.4823   3.4823   6.6353   7.7626  13.3633  13.3633

          k = 0.7333 0.0000 0.0000 (  1194 PWs)   bands (ev):

    -3.6187   0.3526   3.4104   3.4104   6.5953   7.5884  13.6677  13.6677

          k = 0.7667 0.0000 0.0000 (  1190 PWs)   bands (ev):

    -3.4177   0.0686   3.3467   3.3467   6.5659   7.4277  13.9735  13.9735

          k = 0.8000 0.0000 0.0000 (  1190 PWs)   bands (ev):

    -3.2091  -0.2125   3.2912   3.2912   6.5474   7.2807  14.2801  14.2801

          k = 0.8333 0.0000 0.0000 (  1190 PWs)   bands (ev):

    -2.9931  -0.4900   3.2442   3.2442   6.5402   7.1473  14.5862  14.5862

          k = 0.8667 0.0000 0.0000 (  1190 PWs)   bands (ev):

    -2.7701  -0.7637   3.2057   3.2057   6.5446   7.0276  14.8896  14.8896

          k = 0.9000 0.0000 0.0000 (  1182 PWs)   bands (ev):

    -2.5402  -1.0331   3.1757   3.1757   6.5608   6.9215  15.1854  15.1854

          k = 0.9333 0.0000 0.0000 (  1182 PWs)   bands (ev):

    -2.3037  -1.2979   3.1542   3.1542   6.5892   6.8289  15.4618  15.4618

          k = 0.9667 0.0000 0.0000 (  1162 PWs)   bands (ev):

    -2.0609  -1.5577   3.1413   3.1413   6.6299   6.7495  15.6874  15.6874

          k = 1.0000 0.0000 0.0000 (  1162 PWs)   bands (ev):

    -1.8122  -1.8122   3.1370   3.1370   6.6833   6.6833  15.7848  15.7848

          k = 1.0000 0.0250 0.0250 (  1170 PWs)   bands (ev):

    -1.8146  -1.8063   3.1013   3.1413   6.6882   6.7370  15.7289  15.7523

          k = 1.0000 0.0500 0.0500 (  1174 PWs)   bands (ev):

    -1.8220  -1.7889   3.0011   3.1541   6.7029   6.8913  15.5751  15.6592

          k = 1.0000 0.0750 0.0750 (  1178 PWs)   bands (ev):

    -1.8353  -1.7598   2.8532   3.1755   6.7275   7.1304  15.3521  15.5161

          k = 1.0000 0.1000 0.1000 (  1180 PWs)   bands (ev):

    -1.8556  -1.7192   2.6768   3.2053   6.7617   7.4359  15.0867  15.3357

          k = 1.0000 0.1250 0.1250 (  1176 PWs)   bands (ev):

    -1.8845  -1.6669   2.4887   3.2434   6.8055   7.7925  14.7970  15.1290

          k = 1.0000 0.1500 0.1500 (  1176 PWs)   bands (ev):

    -1.9239  -1.6030   2.3025   3.2897   6.8588   8.1885  14.4945  14.9050

          k = 1.0000 0.1750 0.1750 (  1176 PWs)   bands (ev):

    -1.9761  -1.5276   2.1283   3.3441   6.9214   8.6153  14.1864  14.6700

          k = 1.0000 0.2000 0.2000 (  1182 PWs)   bands (ev):

    -2.0431  -1.4406   1.9737   3.4063   6.9929   9.0670  13.8772  14.4290

          k = 1.0000 0.2250 0.2250 (  1174 PWs)   bands (ev):

    -2.1265  -1.3422   1.8445   3.4761   7.0733   9.5388  13.5698  14.1297

          k = 1.0000 0.2500 0.2500 (  1172 PWs)   bands (ev):

    -2.2271  -1.2323   1.7443   3.5532   7.1620  10.0269  13.2665  13.8066

          k = 0.9667 0.2417 0.2417 (  1173 PWs)   bands (ev):

    -2.2302  -1.2341   1.7875   3.5307   7.1371   9.8684  13.2968  13.6463

          k = 0.9333 0.2333 0.2333 (  1181 PWs)   bands (ev):

    -2.3124  -1.1600   1.8576   3.5168   7.1242   9.7232  13.2235  13.4267

          k = 0.9000 0.2250 0.2250 (  1179 PWs)   bands (ev):

    -2.4528  -1.0269   1.9507   3.5118   7.1232   9.5922  13.1012  13.2059

          k = 0.8667 0.2167 0.2167 (  1180 PWs)   bands (ev):

    -2.6268  -0.8564   2.0634   3.5158   7.1335   9.4763  12.9591  12.9859

          k = 0.8333 0.2083 0.2083 (  1185 PWs)   bands (ev):

    -2.8182  -0.6620   2.1926   3.5288   7.1546   9.3765  12.7675  12.8094

          k = 0.8000 0.2000 0.2000 (  1187 PWs)   bands (ev):

    -3.0178  -0.4510   2.3357   3.5510   7.1855   9.2941  12.5509  12.6572

          k = 0.7667 0.1917 0.1917 (  1193 PWs)   bands (ev):

    -3.2201  -0.2272   2.4906   3.5824   7.2249   9.2305  12.3363  12.5045

          k = 0.7333 0.1833 0.1833 (  1195 PWs)   bands (ev):

    -3.4216   0.0074   2.6553   3.6229   7.2714   9.1874  12.1240  12.3517

          k = 0.7000 0.1750 0.1750 (  1192 PWs)   bands (ev):

    -3.6202   0.2513   2.8281   3.6727   7.3231   9.1666  11.9140  12.1984

          k = 0.6667 0.1667 0.1667 (  1190 PWs)   bands (ev):

    -3.8140   0.5039   3.0074   3.7315   7.3781   9.1696  11.7069  12.0437

          k = 0.6333 0.1583 0.1583 (  1193 PWs)   bands (ev):

    -4.0020   0.7644   3.1917   3.7993   7.4346   9.1979  11.5031  11.8863

          k = 0.6000 0.1500 0.1500 (  1195 PWs)   bands (ev):

    -4.1832   1.0326   3.3797   3.8761   7.4908   9.2518  11.3034  11.7245

          k = 0.5667 0.1417 0.1417 (  1195 PWs)   bands (ev):

    -4.3570   1.3080   3.5700   3.9617   7.5460   9.3302  11.1093  11.5567

          k = 0.5333 0.1333 0.1333 (  1193 PWs)   bands (ev):

    -4.5226   1.5903   3.7615   4.0558   7.5998   9.4299  10.9233  11.3813

          k = 0.5000 0.1250 0.1250 (  1189 PWs)   bands (ev):

    -4.6797   1.8791   3.9530   4.1583   7.6528   9.5436  10.7503  11.1969

          k = 0.4667 0.1167 0.1167 (  1192 PWs)   bands (ev):

    -4.8280   2.1742   4.1433   4.2689   7.7058   9.6570  10.6010  11.0027

          k = 0.4333 0.1083 0.1083 (  1193 PWs)   bands (ev):

    -4.9670   2.4750   4.3314   4.3870   7.7600   9.7410  10.4986  10.7986

          k = 0.4000 0.1000 0.1000 (  1190 PWs)   bands (ev):

    -5.0965   2.7810   4.5124   4.5161   7.8165   9.7535  10.4758  10.5852

          k = 0.3667 0.0917 0.0917 (  1192 PWs)   bands (ev):

    -5.2163   3.0916   4.6442   4.6963   7.8759   9.6835  10.3641  10.5285

          k = 0.3333 0.0833 0.0833 (  1186 PWs)   bands (ev):

    -5.3262   3.4058   4.7818   4.8708   7.9387   9.5643  10.1375  10.5969

          k = 0.3000 0.0750 0.0750 (  1194 PWs)   bands (ev):

    -5.4260   3.7225   4.9239   5.0383   8.0048   9.4256   9.9080  10.6128

          k = 0.2667 0.0667 0.0667 (  1200 PWs)   bands (ev):

    -5.5157   4.0401   5.0693   5.1974   8.0736   9.2820   9.6791  10.5288

          k = 0.2333 0.0583 0.0583 (  1204 PWs)   bands (ev):

    -5.5951   4.3564   5.2159   5.3464   8.1439   9.1406   9.4543  10.3446

          k = 0.2000 0.0500 0.0500 (  1208 PWs)   bands (ev):

    -5.6640   4.6680   5.3611   5.4834   8.2138   9.0053   9.2380  10.0964

          k = 0.1667 0.0417 0.0417 (  1212 PWs)   bands (ev):

    -5.7225   4.9702   5.5015   5.6063   8.2809   8.8785   9.0351   9.8227

          k = 0.1333 0.0333 0.0333 (  1214 PWs)   bands (ev):

    -5.7704   5.2555   5.6323   5.7126   8.3423   8.7619   8.8516   9.5526

          k = 0.1000 0.0250 0.0250 (  1226 PWs)   bands (ev):

    -5.8078   5.5125   5.7470   5.7995   8.3947   8.6562   8.6948   9.3109

          k = 0.0667 0.0167 0.0167 (  1236 PWs)   bands (ev):

    -5.8345   5.7239   5.8381   5.8643   8.4349   8.5641   8.5732   9.1213

          k = 0.0333 0.0083 0.0083 (  1242 PWs)   bands (ev):

    -5.8505   5.8668   5.8973   5.9044   8.4601   8.4953   8.4955   9.0029

          k = 0.0000 0.0000 0.0000 (  1243 PWs)   bands (ev):

    -5.8558   5.9179   5.9179   5.9179   8.4687   8.4687   8.4687   8.9632

     Writing output data file ../out/si.save/

     init_run     :      0.08s CPU      0.09s WALL (       1 calls)
     electrons    :      2.38s CPU      2.45s WALL (       1 calls)

     Called by init_run:
     wfcinit      :      0.00s CPU      0.00s WALL (       1 calls)
     potinit      :      0.01s CPU      0.01s WALL (       1 calls)
     hinit0       :      0.05s CPU      0.05s WALL (       1 calls)

     Called by electrons:
     c_bands      :      2.38s CPU      2.45s WALL (       1 calls)
     v_of_rho     :      0.01s CPU      0.01s WALL (       1 calls)
     newd         :      0.01s CPU      0.02s WALL (       1 calls)

     Called by c_bands:
     init_us_2    :      0.00s CPU      0.00s WALL (      91 calls)
     cegterg      :      2.16s CPU      2.20s WALL (     197 calls)

     Called by *egterg:
     cdiaghg      :      0.16s CPU      0.16s WALL (    3001 calls)
     h_psi        :      1.61s CPU      1.64s WALL (    3198 calls)
     s_psi        :      0.10s CPU      0.10s WALL (    3198 calls)
     g_psi        :      0.01s CPU      0.01s WALL (    2910 calls)

     Called by h_psi:
     h_psi:calbec :      0.16s CPU      0.17s WALL (    3198 calls)
     vloc_psi     :      1.34s CPU      1.37s WALL (    3198 calls)
     add_vuspsi   :      0.10s CPU      0.10s WALL (    3198 calls)

     General routines
     calbec       :      0.16s CPU      0.17s WALL (    3198 calls)
     fft          :      0.01s CPU      0.01s WALL (      13 calls)
     ffts         :      0.00s CPU      0.00s WALL (       1 calls)
     fftw         :      1.21s CPU      1.24s WALL (   35924 calls)
     interpolate  :      0.00s CPU      0.00s WALL (       1 calls)
     davcio       :      0.00s CPU      0.02s WALL (     182 calls)

     Parallel routines

     PWSCF        :      2.65s CPU      2.75s WALL


   This run was terminated on:  22:34:25  17Dec2021            

=------------------------------------------------------------------------------=
   JOB DONE.
=------------------------------------------------------------------------------=
