
     Program PWSCF v.6.8 starts on 17Dec2021 at 22:32:49 

     This program is part of the open-source Quantum ESPRESSO suite
     for quantum simulation of materials; please cite
         "P. Giannozzi et al., J. Phys.:Condens. Matter 21 395502 (2009);
         "P. Giannozzi et al., J. Phys.:Condens. Matter 29 465901 (2017);
         "P. Giannozzi et al., J. Chem. Phys. 152 154105 (2020);
          URL http://www.quantum-espresso.org", 
     in publications or presentations arising from this work. More details at
     http://www.quantum-espresso.org/quote

     Parallel version (MPI), running on     6 processors

     MPI processes distributed on     1 nodes
     R & G space division:  proc/nbgrp/npool/nimage =       6
     10823 MiB available memory on the printing compute node when the environment starts

     Reading input from si.nscf.in

     Current dimensions of program PWSCF are:
     Max number of different atomic species (ntypx) = 10
     Max number of k-points (npk) =  40000
     Max angular momentum in pseudopotentials (lmaxx) =  4

     Atomic positions and unit cell read from directory:
     ../out/si.save/


     Subspace diagonalization in iterative solution of the eigenvalue problem:
     a serial algorithm will be used


     Parallelization info
     --------------------
     sticks:   dense  smooth     PW     G-vecs:    dense   smooth      PW
     Min         195      97     31                 4468     1567     280
     Max         197      98     32                 4470     1571     283
     Sum        1177     583    187                26813     9409    1687

     Using Slab Decomposition



     bravais-lattice index     =            2
     lattice parameter (alat)  =      10.3576  a.u.
     unit-cell volume          =     277.7899 (a.u.)^3
     number of atoms/cell      =            2
     number of atomic types    =            1
     number of electrons       =         8.00
     number of Kohn-Sham states=            8
     kinetic-energy cutoff     =      40.0000  Ry
     charge density cutoff     =     320.0000  Ry
     Exchange-correlation= PBE
                           (   1   4   3   4   0   0   0)

     celldm(1)=  10.357592  celldm(2)=   0.000000  celldm(3)=   0.000000
     celldm(4)=   0.000000  celldm(5)=   0.000000  celldm(6)=   0.000000

     crystal axes: (cart. coord. in units of alat)
               a(1) = (  -0.500000   0.000000   0.500000 )  
               a(2) = (   0.000000   0.500000   0.500000 )  
               a(3) = (  -0.500000   0.500000   0.000000 )  

     reciprocal axes: (cart. coord. in units 2 pi/alat)
               b(1) = ( -1.000000 -1.000000  1.000000 )  
               b(2) = (  1.000000  1.000000  1.000000 )  
               b(3) = ( -1.000000  1.000000 -1.000000 )  


     PseudoPot. # 1 for Si read from file:
     /home/pratham007/Downloads/SSSP_1.1.2_PBE_precision/Si.pbe-n-rrkjus_psl.1.0.0.UPF
     MD5 check sum: 0b0bb1205258b0d07b9f9672cf965d36
     Pseudo is Ultrasoft + core correction, Zval =  4.0
     Generated using "atomic" code by A. Dal Corso  v.5.1
     Using radial grid of 1141 points,  6 beta functions with: 
                l(1) =   0
                l(2) =   0
                l(3) =   1
                l(4) =   1
                l(5) =   2
                l(6) =   2
     Q(r) pseudized with 0 coefficients 


     atomic species   valence    mass     pseudopotential
        Si             4.00    28.08550     Si( 1.00)

     48 Sym. Ops., with inversion, found (24 have fractional translation)



   Cartesian axes

     site n.     atom                  positions (alat units)
         1           Si  tau(   1) = (   0.0000000   0.0000000   0.0000000  )
         2           Si  tau(   2) = (   0.2500000   0.2500000   0.2500000  )

     number of k points=    72 (tetrahedron method)
                       cart. coord. in units 2pi/alat
        k(    1) = (   0.0000000   0.0000000   0.0000000), wk =   0.0011574
        k(    2) = (  -0.0833333   0.0833333  -0.0833333), wk =   0.0092593
        k(    3) = (  -0.1666667   0.1666667  -0.1666667), wk =   0.0092593
        k(    4) = (  -0.2500000   0.2500000  -0.2500000), wk =   0.0092593
        k(    5) = (  -0.3333333   0.3333333  -0.3333333), wk =   0.0092593
        k(    6) = (  -0.4166667   0.4166667  -0.4166667), wk =   0.0092593
        k(    7) = (   0.5000000  -0.5000000   0.5000000), wk =   0.0046296
        k(    8) = (   0.0000000   0.1666667   0.0000000), wk =   0.0069444
        k(    9) = (  -0.0833333   0.2500000  -0.0833333), wk =   0.0277778
        k(   10) = (  -0.1666667   0.3333333  -0.1666667), wk =   0.0277778
        k(   11) = (  -0.2500000   0.4166667  -0.2500000), wk =   0.0277778
        k(   12) = (  -0.3333333   0.5000000  -0.3333333), wk =   0.0277778
        k(   13) = (   0.5833333  -0.4166667   0.5833333), wk =   0.0277778
        k(   14) = (   0.5000000  -0.3333333   0.5000000), wk =   0.0277778
        k(   15) = (   0.4166667  -0.2500000   0.4166667), wk =   0.0277778
        k(   16) = (   0.3333333  -0.1666667   0.3333333), wk =   0.0277778
        k(   17) = (   0.2500000  -0.0833333   0.2500000), wk =   0.0277778
        k(   18) = (   0.1666667  -0.0000000   0.1666667), wk =   0.0138889
        k(   19) = (   0.0000000   0.3333333   0.0000000), wk =   0.0069444
        k(   20) = (  -0.0833333   0.4166667  -0.0833333), wk =   0.0277778
        k(   21) = (  -0.1666667   0.5000000  -0.1666667), wk =   0.0277778
        k(   22) = (  -0.2500000   0.5833333  -0.2500000), wk =   0.0277778
        k(   23) = (   0.6666667  -0.3333333   0.6666667), wk =   0.0277778
        k(   24) = (   0.5833333  -0.2500000   0.5833333), wk =   0.0277778
        k(   25) = (   0.5000000  -0.1666667   0.5000000), wk =   0.0277778
        k(   26) = (   0.4166667  -0.0833333   0.4166667), wk =   0.0277778
        k(   27) = (   0.3333333   0.0000000   0.3333333), wk =   0.0138889
        k(   28) = (   0.0000000   0.5000000   0.0000000), wk =   0.0069444
        k(   29) = (  -0.0833333   0.5833333  -0.0833333), wk =   0.0277778
        k(   30) = (  -0.1666667   0.6666667  -0.1666667), wk =   0.0277778
        k(   31) = (   0.7500000  -0.2500000   0.7500000), wk =   0.0277778
        k(   32) = (   0.6666667  -0.1666667   0.6666667), wk =   0.0277778
        k(   33) = (   0.5833333  -0.0833333   0.5833333), wk =   0.0277778
        k(   34) = (   0.5000000   0.0000000   0.5000000), wk =   0.0138889
        k(   35) = (   0.0000000   0.6666667   0.0000000), wk =   0.0069444
        k(   36) = (  -0.0833333   0.7500000  -0.0833333), wk =   0.0277778
        k(   37) = (   0.8333333  -0.1666667   0.8333333), wk =   0.0277778
        k(   38) = (   0.7500000  -0.0833333   0.7500000), wk =   0.0277778
        k(   39) = (   0.6666667   0.0000000   0.6666667), wk =   0.0138889
        k(   40) = (   0.0000000   0.8333333   0.0000000), wk =   0.0069444
        k(   41) = (   0.9166667  -0.0833333   0.9166667), wk =   0.0277778
        k(   42) = (   0.8333333   0.0000000   0.8333333), wk =   0.0138889
        k(   43) = (   0.0000000  -1.0000000   0.0000000), wk =   0.0034722
        k(   44) = (  -0.1666667   0.3333333   0.0000000), wk =   0.0277778
        k(   45) = (  -0.2500000   0.4166667  -0.0833333), wk =   0.0555556
        k(   46) = (  -0.3333333   0.5000000  -0.1666667), wk =   0.0555556
        k(   47) = (   0.5833333  -0.4166667   0.7500000), wk =   0.0555556
        k(   48) = (   0.5000000  -0.3333333   0.6666667), wk =   0.0277778
        k(   49) = (  -0.1666667   0.5000000   0.0000000), wk =   0.0277778
        k(   50) = (  -0.2500000   0.5833333  -0.0833333), wk =   0.0555556
        k(   51) = (   0.6666667  -0.3333333   0.8333333), wk =   0.0555556
        k(   52) = (   0.5833333  -0.2500000   0.7500000), wk =   0.0555556
        k(   53) = (   0.5000000  -0.1666667   0.6666667), wk =   0.0555556
        k(   54) = (   0.4166667  -0.0833333   0.5833333), wk =   0.0555556
        k(   55) = (   0.3333333   0.0000000   0.5000000), wk =   0.0277778
        k(   56) = (  -0.1666667   0.6666667  -0.0000000), wk =   0.0277778
        k(   57) = (   0.7500000  -0.2500000   0.9166667), wk =   0.0555556
        k(   58) = (   0.6666667  -0.1666667   0.8333333), wk =   0.0555556
        k(   59) = (   0.5833333  -0.0833333   0.7500000), wk =   0.0555556
        k(   60) = (   0.5000000   0.0000000   0.6666667), wk =   0.0277778
        k(   61) = (   0.8333333  -0.1666667   1.0000000), wk =   0.0277778
        k(   62) = (   0.7500000  -0.0833333   0.9166667), wk =   0.0555556
        k(   63) = (   0.6666667   0.0000000   0.8333333), wk =   0.0277778
        k(   64) = (  -0.1666667  -1.0000000   0.0000000), wk =   0.0138889
        k(   65) = (   0.6666667  -0.3333333   1.0000000), wk =   0.0277778
        k(   66) = (   0.5833333  -0.2500000   0.9166667), wk =   0.0555556
        k(   67) = (   0.5000000  -0.1666667   0.8333333), wk =   0.0277778
        k(   68) = (   0.6666667  -0.1666667   1.0000000), wk =   0.0277778
        k(   69) = (   0.5833333  -0.0833333   0.9166667), wk =   0.0555556
        k(   70) = (   0.5000000   0.0000000   0.8333333), wk =   0.0277778
        k(   71) = (  -0.3333333  -1.0000000   0.0000000), wk =   0.0138889
        k(   72) = (  -0.5000000  -1.0000000   0.0000000), wk =   0.0069444

     Dense  grid:    26813 G-vectors     FFT dimensions: (  48,  48,  48)

     Smooth grid:     9409 G-vectors     FFT dimensions: (  32,  32,  32)

     Estimated max dynamical RAM per process >      16.19 MB

     Estimated total dynamical RAM >      97.16 MB

     The potential is recalculated from file :
     ../out/si.save/charge-density

     Starting wfcs are    8 randomized atomic wfcs

     Band Structure Calculation
     Davidson diagonalization with overlap

     ethr =  1.25E-10,  avg # of iterations = 34.1

     total cpu time spent up to now is        2.1 secs

     End of band structure calculation

          k = 0.0000 0.0000 0.0000 (  1243 PWs)   bands (ev):

    -5.8558   5.9179   5.9179   5.9179   8.4687   8.4687   8.4687   8.9632

          k =-0.0833 0.0833-0.0833 (  1209 PWs)   bands (ev):

    -5.7670   5.0580   5.7783   5.7783   8.4615   8.6742   8.6742   9.6844

          k =-0.1667 0.1667-0.1667 (  1197 PWs)   bands (ev):

    -5.5033   3.5560   5.4788   5.4788   8.1768   9.1014   9.1014  11.1331

          k =-0.2500 0.2500-0.2500 (  1197 PWs)   bands (ev):

    -5.0759   2.0392   5.1754   5.1754   7.8499   9.4011   9.4011  12.6081

          k =-0.3333 0.3333-0.3333 (  1176 PWs)   bands (ev):

    -4.5145   0.6630   4.9384   4.9384   7.5832   9.4193   9.4193  13.6703

          k =-0.4167 0.4167-0.4167 (  1182 PWs)   bands (ev):

    -3.9143  -0.4370   4.7920   4.7920   7.4147   9.3203   9.3203  13.6891

          k = 0.5000-0.5000 0.5000 (  1170 PWs)   bands (ev):

    -3.5941  -0.9253   4.7428   4.7428   7.3575   9.2705   9.2705  13.6156

          k = 0.0000 0.1667 0.0000 (  1219 PWs)   bands (ev):

    -5.7372   5.2013   5.5020   5.5020   8.2019   9.0306   9.0306   9.6310

          k =-0.0833 0.2500-0.0833 (  1194 PWs)   bands (ev):

    -5.5313   3.9922   5.1474   5.3219   8.2196   9.0520   9.5567  10.6317

          k =-0.1667 0.3333-0.1667 (  1198 PWs)   bands (ev):

    -5.1569   2.5207   4.8405   5.0033   8.3082   9.0656   9.9419  11.2629

          k =-0.2500 0.4167-0.2500 (  1189 PWs)   bands (ev):

    -4.6350   1.1162   4.6336   4.6565   8.1379   9.1895   9.9815  11.8450

          k =-0.3333 0.5000-0.3333 (  1184 PWs)   bands (ev):

    -4.0283  -0.0830   4.3665   4.5437   7.9645   9.1802   9.8037  12.8688

          k = 0.5833-0.4167 0.5833 (  1186 PWs)   bands (ev):

    -3.5564  -0.8283   4.1669   4.5721   7.8796   9.1914   9.6142  13.7703

          k = 0.5000-0.3333 0.5000 (  1187 PWs)   bands (ev):

    -3.6721  -0.6569   4.0758   4.7105   7.9024   9.3074   9.5052  13.8780

          k = 0.4167-0.2500 0.4167 (  1185 PWs)   bands (ev):

    -4.2335   0.2870   4.1056   4.9440   8.0321   9.4658   9.5069  13.2942

          k = 0.3333-0.1667 0.3333 (  1190 PWs)   bands (ev):

    -4.8241   1.5698   4.2658   5.2470   8.2563   9.3706   9.6399  12.3127

          k = 0.2500-0.0833 0.2500 (  1194 PWs)   bands (ev):

    -5.3003   2.9964   4.5681   5.5692   8.5406   9.0653   9.4081  11.4882

          k = 0.1667-0.0000 0.1667 (  1205 PWs)   bands (ev):

    -5.6197   4.3251   5.0822   5.8002   8.7135   8.7530   8.8584  10.5180

          k = 0.0000 0.3333 0.0000 (  1187 PWs)   bands (ev):

    -5.3832   3.8543   4.7593   4.7593   7.6332  10.0925  10.2042  10.2042

          k =-0.0833 0.4167-0.0833 (  1198 PWs)   bands (ev):

    -5.0640   2.7953   4.4113   4.4323   7.6519   9.7422  10.5576  10.7587

          k =-0.1667 0.5000-0.1667 (  1190 PWs)   bands (ev):

    -4.5884   1.5198   3.9642   4.2175   7.8867   9.8994  10.4179  10.9378

          k =-0.2500 0.5833-0.2500 (  1187 PWs)   bands (ev):

    -3.9977   0.3185   3.5330   4.1338   7.9300  10.0854  10.7769  10.9362

          k = 0.6667-0.3333 0.6667 (  1189 PWs)   bands (ev):

    -3.4345  -0.5865   3.1967   4.1847   7.9555   9.9614  10.5177  12.2661

          k = 0.5833-0.2500 0.5833 (  1175 PWs)   bands (ev):

    -3.3252  -0.7400   2.9901   4.3628   8.0872   9.9245  10.2966  13.7885

          k = 0.5000-0.1667 0.5000 (  1181 PWs)   bands (ev):

    -3.8060  -0.0063   2.9396   4.6495   8.3325   9.9890  10.1263  13.0792

          k = 0.4167-0.0833 0.4167 (  1186 PWs)   bands (ev):

    -4.4117   1.1076   3.0886   5.0076   8.6403   9.8865  10.0502  11.9319

          k = 0.3333 0.0000 0.3333 (  1193 PWs)   bands (ev):

    -4.9297   2.2219   3.5745   5.3620   8.8707   9.4447   9.7195  11.4713

          k = 0.0000 0.5000 0.0000 (  1198 PWs)   bands (ev):

    -4.7998   2.3938   4.0786   4.0786   7.0749   9.0546  11.5854  11.5854

          k =-0.0833 0.5833-0.0833 (  1198 PWs)   bands (ev):

    -4.3740   1.5046   3.6243   3.8372   7.1579   8.7143  11.8527  12.0665

          k =-0.1667 0.6667-0.1667 (  1190 PWs)   bands (ev):

    -3.8140   0.5039   3.0074   3.7315   7.3781   9.1696  11.7069  12.0437

          k = 0.7500-0.2500 0.7500 (  1194 PWs)   bands (ev):

    -3.2095  -0.3931   2.4734   3.7681   7.4665  10.3470  11.5304  11.7825

          k = 0.6667-0.1667 0.6667 (  1180 PWs)   bands (ev):

    -2.8993  -0.7910   2.1206   3.9428   7.6385  11.3113  11.4917  11.9735

          k = 0.5833-0.0833 0.5833 (  1183 PWs)   bands (ev):

    -3.2618  -0.3148   2.0090   4.2392   7.9481  11.1857  11.2765  12.9640

          k = 0.5000 0.0000 0.5000 (  1195 PWs)   bands (ev):

    -3.8648   0.4855   2.2704   4.6204   8.3499  10.6506  10.9897  11.9207

          k = 0.0000 0.6667 0.0000 (  1186 PWs)   bands (ev):

    -3.9974   0.9284   3.5624   3.5624   6.6856   7.9500  13.0608  13.0608

          k =-0.0833 0.7500-0.0833 (  1190 PWs)   bands (ev):

    -3.4762   0.1597   3.0930   3.4226   6.8475   7.8168  13.3632  13.4369

          k = 0.8333-0.1667 0.8333 (  1185 PWs)   bands (ev):

    -2.8650  -0.5904   2.3899   3.4280   7.0247   8.6431  13.2458  13.2731

          k = 0.7500-0.0833 0.7500 (  1182 PWs)   bands (ev):

    -2.4143  -1.0650   1.8304   3.5774   7.1969  10.0621  12.9254  13.0800

          k = 0.6667 0.0000 0.6667 (  1182 PWs)   bands (ev):

    -2.6811  -0.7836   1.6346   3.8583   7.5121  11.6935  12.3001  12.8534

          k = 0.0000 0.8333 0.0000 (  1190 PWs)   bands (ev):

    -2.9931  -0.4900   3.2442   3.2442   6.5402   7.1473  14.5862  14.5862

          k = 0.9167-0.0833 0.9167 (  1186 PWs)   bands (ev):

    -2.3954  -1.1624   2.8295   3.2111   6.7423   7.2995  14.8341  14.9070

          k = 0.8333 0.0000 0.8333 (  1168 PWs)   bands (ev):

    -1.9572  -1.5540   2.1845   3.3251   6.8995   8.4700  14.2894  14.7492

          k = 0.0000-1.0000 0.0000 (  1162 PWs)   bands (ev):

    -1.8122  -1.8122   3.1370   3.1370   6.6833   6.6833  15.7848  15.7848

          k =-0.1667 0.3333 0.0000 (  1187 PWs)   bands (ev):

    -5.2691   3.1942   4.3321   5.2229   8.2493   9.3530  10.0211  10.7747

          k =-0.2500 0.4167-0.0833 (  1192 PWs)   bands (ev):

    -4.8437   1.9809   3.8064   4.9554   8.5144   9.3418  10.4274  10.7983

          k =-0.3333 0.5000-0.1667 (  1183 PWs)   bands (ev):

    -4.2841   0.7129   3.5354   4.6379   8.5288   9.2784  10.4894  11.4267

          k = 0.5833-0.4167 0.7500 (  1183 PWs)   bands (ev):

    -3.6822  -0.3459   3.4057   4.3996   8.4554   9.1270  10.4167  12.6085

          k = 0.5000-0.3333 0.6667 (  1184 PWs)   bands (ev):

    -3.3577  -0.8266   3.3688   4.3112   8.4262   9.0557  10.3743  13.8801

          k =-0.1667 0.5000 0.0000 (  1189 PWs)   bands (ev):

    -4.6923   2.0085   3.6531   4.3299   7.7173   9.4263  10.6672  11.4698

          k =-0.2500 0.5833-0.0833 (  1188 PWs)   bands (ev):

    -4.1736   0.9841   3.1246   4.0517   8.0457   9.6497  10.4102  11.8542

          k = 0.6667-0.3333 0.8333 (  1194 PWs)   bands (ev):

    -3.5665  -0.0387   2.7700   3.8487   8.1668  10.0866  10.6724  11.8414

          k = 0.5833-0.2500 0.7500 (  1188 PWs)   bands (ev):

    -3.0882  -0.7201   2.5283   3.8313   8.2891   9.8169  11.7346  12.1212

          k = 0.5000-0.1667 0.6667 (  1179 PWs)   bands (ev):

    -3.2187  -0.5397   2.4159   3.9981   8.5258   9.6370  11.6441  12.5189

          k = 0.4167-0.0833 0.5833 (  1186 PWs)   bands (ev):

    -3.7892   0.3083   2.4954   4.3050   8.8634   9.5019  11.1428  11.6245

          k = 0.3333 0.0000 0.5000 (  1188 PWs)   bands (ev):

    -4.3749   1.2624   2.9059   4.6746   9.1073   9.2121  10.5682  11.1814

          k =-0.1667 0.6667-0.0000 (  1195 PWs)   bands (ev):

    -3.9019   0.7586   3.1555   3.5713   7.3329   8.4218  11.8801  13.0120

          k = 0.7500-0.2500 0.9167 (  1190 PWs)   bands (ev):

    -3.3128  -0.0573   2.5849   3.3618   7.6664   8.9324  11.5886  13.3749

          k = 0.6667-0.1667 0.8333 (  1183 PWs)   bands (ev):

    -2.7429  -0.7499   2.0789   3.3690   7.8190  10.2045  11.2973  13.3010

          k = 0.5833-0.0833 0.7500 (  1176 PWs)   bands (ev):

    -2.6766  -0.8165   1.8002   3.5614   8.0673  10.9330  11.8995  12.5425

          k = 0.5000 0.0000 0.6667 (  1186 PWs)   bands (ev):

    -3.1969  -0.2420   1.8857   3.8962   8.4438  10.5173  11.3560  12.6736

          k = 0.8333-0.1667 1.0000 (  1185 PWs)   bands (ev):

    -2.9188  -0.5271   2.8788   3.0714   7.1718   7.6884  13.2362  14.5783

          k = 0.7500-0.0833 0.9167 (  1180 PWs)   bands (ev):

    -2.3082  -1.1557   2.2746   3.0282   7.4632   8.5664  12.9267  14.3596

          k = 0.6667 0.0000 0.8333 (  1179 PWs)   bands (ev):

    -2.1639  -1.2622   1.7943   3.2198   7.6941  10.0696  12.4742  12.8634

          k =-0.1667-1.0000 0.0000 (  1182 PWs)   bands (ev):

    -1.7767  -1.7767   2.8450   2.8450   7.2790   7.2790  14.6714  14.6714

          k = 0.6667-0.3333 1.0000 (  1192 PWs)   bands (ev):

    -3.6245   0.3155   2.4482   3.6869   8.7604   9.6410  10.0759  12.8746

          k = 0.5833-0.2500 0.9167 (  1188 PWs)   bands (ev):

    -3.0192  -0.4344   2.1083   3.3618   9.1376   9.6577  10.6154  13.2993

          k = 0.5000-0.1667 0.8333 (  1186 PWs)   bands (ev):

    -2.6721  -0.8480   2.0154   3.2369   9.2892   9.4213  11.9639  12.3288

          k = 0.6667-0.1667 1.0000 (  1187 PWs)   bands (ev):

    -2.7135  -0.6694   2.2568   2.8613   8.5991   9.0102  11.2207  14.0894

          k = 0.5833-0.0833 0.9167 (  1183 PWs)   bands (ev):

    -2.2075  -1.1634   1.9540   2.7114   8.9402  10.1960  10.9422  12.3197

          k = 0.5000 0.0000 0.8333 (  1191 PWs)   bands (ev):

    -2.4335  -0.9375   1.8329   2.9293   9.2375  10.3646  10.8515  12.0719

          k =-0.3333-1.0000 0.0000 (  1182 PWs)   bands (ev):

    -1.7010  -1.7010   2.3798   2.3798   8.6714   8.6714  12.5810  12.5810

          k =-0.5000-1.0000 0.0000 (  1176 PWs)   bands (ev):

    -1.6604  -1.6604   2.1808   2.1808  10.1938  10.1938  10.8230  10.8230

     the Fermi energy is     6.3170 ev
     (compare with:     6.3170 eV, computed in scf)

     Writing output data file ../out/si.save/

     init_run     :      0.08s CPU      0.08s WALL (       1 calls)
     electrons    :      1.83s CPU      1.86s WALL (       1 calls)

     Called by init_run:
     wfcinit      :      0.00s CPU      0.00s WALL (       1 calls)
     potinit      :      0.01s CPU      0.01s WALL (       1 calls)
     hinit0       :      0.04s CPU      0.04s WALL (       1 calls)

     Called by electrons:
     c_bands      :      1.82s CPU      1.84s WALL (       1 calls)
     v_of_rho     :      0.01s CPU      0.01s WALL (       1 calls)
     newd         :      0.02s CPU      0.02s WALL (       1 calls)

     Called by c_bands:
     init_us_2    :      0.00s CPU      0.00s WALL (      72 calls)
     cegterg      :      1.74s CPU      1.76s WALL (     159 calls)

     Called by *egterg:
     cdiaghg      :      0.14s CPU      0.14s WALL (    2530 calls)
     h_psi        :      1.28s CPU      1.29s WALL (    2689 calls)
     s_psi        :      0.08s CPU      0.08s WALL (    2689 calls)
     g_psi        :      0.01s CPU      0.01s WALL (    2458 calls)

     Called by h_psi:
     h_psi:calbec :      0.13s CPU      0.13s WALL (    2689 calls)
     vloc_psi     :      1.05s CPU      1.06s WALL (    2689 calls)
     add_vuspsi   :      0.09s CPU      0.09s WALL (    2689 calls)

     General routines
     calbec       :      0.13s CPU      0.13s WALL (    2689 calls)
     fft          :      0.01s CPU      0.01s WALL (      13 calls)
     ffts         :      0.00s CPU      0.00s WALL (       1 calls)
     fftw         :      0.95s CPU      0.96s WALL (   28814 calls)
     interpolate  :      0.00s CPU      0.00s WALL (       1 calls)
     davcio       :      0.00s CPU      0.00s WALL (     144 calls)

     Parallel routines

     PWSCF        :      2.15s CPU      2.18s WALL


   This run was terminated on:  22:32:51  17Dec2021            

=------------------------------------------------------------------------------=
   JOB DONE.
=------------------------------------------------------------------------------=
