
     Program PWSCF v.6.8 starts on 17Dec2021 at 14:48:45 

     This program is part of the open-source Quantum ESPRESSO suite
     for quantum simulation of materials; please cite
         "P. Giannozzi et al., J. Phys.:Condens. Matter 21 395502 (2009);
         "P. Giannozzi et al., J. Phys.:Condens. Matter 29 465901 (2017);
         "P. Giannozzi et al., J. Chem. Phys. 152 154105 (2020);
          URL http://www.quantum-espresso.org", 
     in publications or presentations arising from this work. More details at
     http://www.quantum-espresso.org/quote

     Parallel version (MPI), running on     6 processors

     MPI processes distributed on     1 nodes
     R & G space division:  proc/nbgrp/npool/nimage =       6
     10551 MiB available memory on the printing compute node when the environment starts

     Reading input from si.nscf.in

     Current dimensions of program PWSCF are:
     Max number of different atomic species (ntypx) = 10
     Max number of k-points (npk) =  40000
     Max angular momentum in pseudopotentials (lmaxx) =  4

     Atomic positions and unit cell read from directory:
     ./outdir/si.save/


     Subspace diagonalization in iterative solution of the eigenvalue problem:
     a serial algorithm will be used


     Parallelization info
     --------------------
     sticks:   dense  smooth     PW     G-vecs:    dense   smooth      PW
     Min         124     124     39                 2220     2220     379
     Max         125     125     40                 2222     2222     380
     Sum         745     745    235                13323    13323    2277

     Using Slab Decomposition



     bravais-lattice index     =            2
     lattice parameter (alat)  =      10.3576  a.u.
     unit-cell volume          =     277.7899 (a.u.)^3
     number of atoms/cell      =            2
     number of atomic types    =            1
     number of electrons       =         8.00
     number of Kohn-Sham states=            8
     kinetic-energy cutoff     =      50.0000  Ry
     charge density cutoff     =     200.0000  Ry
     Exchange-correlation= PBE
                           (   1   4   3   4   0   0   0)

     celldm(1)=  10.357592  celldm(2)=   0.000000  celldm(3)=   0.000000
     celldm(4)=   0.000000  celldm(5)=   0.000000  celldm(6)=   0.000000

     crystal axes: (cart. coord. in units of alat)
               a(1) = (  -0.500000   0.000000   0.500000 )  
               a(2) = (   0.000000   0.500000   0.500000 )  
               a(3) = (  -0.500000   0.500000   0.000000 )  

     reciprocal axes: (cart. coord. in units 2 pi/alat)
               b(1) = ( -1.000000 -1.000000  1.000000 )  
               b(2) = (  1.000000  1.000000  1.000000 )  
               b(3) = ( -1.000000  1.000000 -1.000000 )  


     PseudoPot. # 1 for Si read from file:
     /home/pratham007/Downloads/SSSP_1.1.2_PBE_precision/Si.pbe-n-rrkjus_psl.1.0.0.UPF
     MD5 check sum: 0b0bb1205258b0d07b9f9672cf965d36
     Pseudo is Ultrasoft + core correction, Zval =  4.0
     Generated using "atomic" code by A. Dal Corso  v.5.1
     Using radial grid of 1141 points,  6 beta functions with: 
                l(1) =   0
                l(2) =   0
                l(3) =   1
                l(4) =   1
                l(5) =   2
                l(6) =   2
     Q(r) pseudized with 0 coefficients 


     atomic species   valence    mass     pseudopotential
        Si             4.00    28.08550     Si( 1.00)

     48 Sym. Ops., with inversion, found (24 have fractional translation)



   Cartesian axes

     site n.     atom                  positions (alat units)
         1           Si  tau(   1) = (   0.0000000   0.0000000   0.0000000  )
         2           Si  tau(   2) = (   0.2500000   0.2500000   0.2500000  )

     number of k points=    72 (tetrahedron method)
                       cart. coord. in units 2pi/alat
        k(    1) = (   0.0000000   0.0000000   0.0000000), wk =   0.0011574
        k(    2) = (  -0.0833333   0.0833333  -0.0833333), wk =   0.0092593
        k(    3) = (  -0.1666667   0.1666667  -0.1666667), wk =   0.0092593
        k(    4) = (  -0.2500000   0.2500000  -0.2500000), wk =   0.0092593
        k(    5) = (  -0.3333333   0.3333333  -0.3333333), wk =   0.0092593
        k(    6) = (  -0.4166667   0.4166667  -0.4166667), wk =   0.0092593
        k(    7) = (   0.5000000  -0.5000000   0.5000000), wk =   0.0046296
        k(    8) = (   0.0000000   0.1666667   0.0000000), wk =   0.0069444
        k(    9) = (  -0.0833333   0.2500000  -0.0833333), wk =   0.0277778
        k(   10) = (  -0.1666667   0.3333333  -0.1666667), wk =   0.0277778
        k(   11) = (  -0.2500000   0.4166667  -0.2500000), wk =   0.0277778
        k(   12) = (  -0.3333333   0.5000000  -0.3333333), wk =   0.0277778
        k(   13) = (   0.5833333  -0.4166667   0.5833333), wk =   0.0277778
        k(   14) = (   0.5000000  -0.3333333   0.5000000), wk =   0.0277778
        k(   15) = (   0.4166667  -0.2500000   0.4166667), wk =   0.0277778
        k(   16) = (   0.3333333  -0.1666667   0.3333333), wk =   0.0277778
        k(   17) = (   0.2500000  -0.0833333   0.2500000), wk =   0.0277778
        k(   18) = (   0.1666667  -0.0000000   0.1666667), wk =   0.0138889
        k(   19) = (   0.0000000   0.3333333   0.0000000), wk =   0.0069444
        k(   20) = (  -0.0833333   0.4166667  -0.0833333), wk =   0.0277778
        k(   21) = (  -0.1666667   0.5000000  -0.1666667), wk =   0.0277778
        k(   22) = (  -0.2500000   0.5833333  -0.2500000), wk =   0.0277778
        k(   23) = (   0.6666667  -0.3333333   0.6666667), wk =   0.0277778
        k(   24) = (   0.5833333  -0.2500000   0.5833333), wk =   0.0277778
        k(   25) = (   0.5000000  -0.1666667   0.5000000), wk =   0.0277778
        k(   26) = (   0.4166667  -0.0833333   0.4166667), wk =   0.0277778
        k(   27) = (   0.3333333   0.0000000   0.3333333), wk =   0.0138889
        k(   28) = (   0.0000000   0.5000000   0.0000000), wk =   0.0069444
        k(   29) = (  -0.0833333   0.5833333  -0.0833333), wk =   0.0277778
        k(   30) = (  -0.1666667   0.6666667  -0.1666667), wk =   0.0277778
        k(   31) = (   0.7500000  -0.2500000   0.7500000), wk =   0.0277778
        k(   32) = (   0.6666667  -0.1666667   0.6666667), wk =   0.0277778
        k(   33) = (   0.5833333  -0.0833333   0.5833333), wk =   0.0277778
        k(   34) = (   0.5000000   0.0000000   0.5000000), wk =   0.0138889
        k(   35) = (   0.0000000   0.6666667   0.0000000), wk =   0.0069444
        k(   36) = (  -0.0833333   0.7500000  -0.0833333), wk =   0.0277778
        k(   37) = (   0.8333333  -0.1666667   0.8333333), wk =   0.0277778
        k(   38) = (   0.7500000  -0.0833333   0.7500000), wk =   0.0277778
        k(   39) = (   0.6666667   0.0000000   0.6666667), wk =   0.0138889
        k(   40) = (   0.0000000   0.8333333   0.0000000), wk =   0.0069444
        k(   41) = (   0.9166667  -0.0833333   0.9166667), wk =   0.0277778
        k(   42) = (   0.8333333   0.0000000   0.8333333), wk =   0.0138889
        k(   43) = (   0.0000000  -1.0000000   0.0000000), wk =   0.0034722
        k(   44) = (  -0.1666667   0.3333333   0.0000000), wk =   0.0277778
        k(   45) = (  -0.2500000   0.4166667  -0.0833333), wk =   0.0555556
        k(   46) = (  -0.3333333   0.5000000  -0.1666667), wk =   0.0555556
        k(   47) = (   0.5833333  -0.4166667   0.7500000), wk =   0.0555556
        k(   48) = (   0.5000000  -0.3333333   0.6666667), wk =   0.0277778
        k(   49) = (  -0.1666667   0.5000000   0.0000000), wk =   0.0277778
        k(   50) = (  -0.2500000   0.5833333  -0.0833333), wk =   0.0555556
        k(   51) = (   0.6666667  -0.3333333   0.8333333), wk =   0.0555556
        k(   52) = (   0.5833333  -0.2500000   0.7500000), wk =   0.0555556
        k(   53) = (   0.5000000  -0.1666667   0.6666667), wk =   0.0555556
        k(   54) = (   0.4166667  -0.0833333   0.5833333), wk =   0.0555556
        k(   55) = (   0.3333333   0.0000000   0.5000000), wk =   0.0277778
        k(   56) = (  -0.1666667   0.6666667  -0.0000000), wk =   0.0277778
        k(   57) = (   0.7500000  -0.2500000   0.9166667), wk =   0.0555556
        k(   58) = (   0.6666667  -0.1666667   0.8333333), wk =   0.0555556
        k(   59) = (   0.5833333  -0.0833333   0.7500000), wk =   0.0555556
        k(   60) = (   0.5000000   0.0000000   0.6666667), wk =   0.0277778
        k(   61) = (   0.8333333  -0.1666667   1.0000000), wk =   0.0277778
        k(   62) = (   0.7500000  -0.0833333   0.9166667), wk =   0.0555556
        k(   63) = (   0.6666667   0.0000000   0.8333333), wk =   0.0277778
        k(   64) = (  -0.1666667  -1.0000000   0.0000000), wk =   0.0138889
        k(   65) = (   0.6666667  -0.3333333   1.0000000), wk =   0.0277778
        k(   66) = (   0.5833333  -0.2500000   0.9166667), wk =   0.0555556
        k(   67) = (   0.5000000  -0.1666667   0.8333333), wk =   0.0277778
        k(   68) = (   0.6666667  -0.1666667   1.0000000), wk =   0.0277778
        k(   69) = (   0.5833333  -0.0833333   0.9166667), wk =   0.0555556
        k(   70) = (   0.5000000   0.0000000   0.8333333), wk =   0.0277778
        k(   71) = (  -0.3333333  -1.0000000   0.0000000), wk =   0.0138889
        k(   72) = (  -0.5000000  -1.0000000   0.0000000), wk =   0.0069444

     Dense  grid:    13323 G-vectors     FFT dimensions: (  36,  36,  36)

     Estimated max dynamical RAM per process >       8.51 MB

     Estimated total dynamical RAM >      51.09 MB

     Check: negative core charge=   -0.000001

     The potential is recalculated from file :
     ./outdir/si.save/charge-density

     Starting wfcs are    8 randomized atomic wfcs

     Band Structure Calculation
     Davidson diagonalization with overlap

     ethr =  1.25E-10,  avg # of iterations = 33.4

     total cpu time spent up to now is        3.1 secs

     End of band structure calculation

          k = 0.0000 0.0000 0.0000 (  1639 PWs)   bands (ev):

    -5.8557   5.9181   5.9181   5.9181   8.4687   8.4687   8.4687   8.9635

          k =-0.0833 0.0833-0.0833 (  1669 PWs)   bands (ev):

    -5.7668   5.0581   5.7784   5.7784   8.4616   8.6743   8.6743   9.6846

          k =-0.1667 0.1667-0.1667 (  1666 PWs)   bands (ev):

    -5.5032   3.5561   5.4789   5.4789   8.1769   9.1014   9.1014  11.1333

          k =-0.2500 0.2500-0.2500 (  1654 PWs)   bands (ev):

    -5.0758   2.0393   5.1755   5.1755   7.8500   9.4011   9.4011  12.6083

          k =-0.3333 0.3333-0.3333 (  1634 PWs)   bands (ev):

    -4.5145   0.6631   4.9385   4.9385   7.5834   9.4193   9.4193  13.6704

          k =-0.4167 0.4167-0.4167 (  1673 PWs)   bands (ev):

    -3.9142  -0.4369   4.7921   4.7921   7.4148   9.3203   9.3203  13.6893

          k = 0.5000-0.5000 0.5000 (  1676 PWs)   bands (ev):

    -3.5940  -0.9252   4.7428   4.7428   7.3576   9.2704   9.2704  13.6158

          k = 0.0000 0.1667 0.0000 (  1663 PWs)   bands (ev):

    -5.7371   5.2014   5.5021   5.5021   8.2019   9.0306   9.0306   9.6313

          k =-0.0833 0.2500-0.0833 (  1663 PWs)   bands (ev):

    -5.5312   3.9923   5.1475   5.3220   8.2196   9.0521   9.5567  10.6319

          k =-0.1667 0.3333-0.1667 (  1654 PWs)   bands (ev):

    -5.1568   2.5208   4.8406   5.0034   8.3083   9.0656   9.9419  11.2629

          k =-0.2500 0.4167-0.2500 (  1652 PWs)   bands (ev):

    -4.6349   1.1163   4.6337   4.6566   8.1380   9.1895   9.9815  11.8451

          k =-0.3333 0.5000-0.3333 (  1662 PWs)   bands (ev):

    -4.0282  -0.0829   4.3666   4.5438   7.9646   9.1802   9.8037  12.8689

          k = 0.5833-0.4167 0.5833 (  1664 PWs)   bands (ev):

    -3.5563  -0.8282   4.1670   4.5721   7.8798   9.1914   9.6142  13.7704

          k = 0.5000-0.3333 0.5000 (  1659 PWs)   bands (ev):

    -3.6720  -0.6568   4.0759   4.7106   7.9025   9.3074   9.5052  13.8781

          k = 0.4167-0.2500 0.4167 (  1649 PWs)   bands (ev):

    -4.2334   0.2871   4.1057   4.9441   8.0322   9.4658   9.5069  13.2943

          k = 0.3333-0.1667 0.3333 (  1654 PWs)   bands (ev):

    -4.8240   1.5700   4.2658   5.2471   8.2564   9.3706   9.6399  12.3128

          k = 0.2500-0.0833 0.2500 (  1662 PWs)   bands (ev):

    -5.3002   2.9965   4.5681   5.5693   8.5407   9.0653   9.4082  11.4884

          k = 0.1667-0.0000 0.1667 (  1671 PWs)   bands (ev):

    -5.6195   4.3252   5.0822   5.8003   8.7135   8.7530   8.8585  10.5182

          k = 0.0000 0.3333 0.0000 (  1655 PWs)   bands (ev):

    -5.3831   3.8544   4.7594   4.7594   7.6332  10.0926  10.2042  10.2042

          k =-0.0833 0.4167-0.0833 (  1659 PWs)   bands (ev):

    -5.0639   2.7954   4.4114   4.4324   7.6520   9.7423  10.5577  10.7587

          k =-0.1667 0.5000-0.1667 (  1661 PWs)   bands (ev):

    -4.5883   1.5199   3.9643   4.2175   7.8868   9.8995  10.4179  10.9378

          k =-0.2500 0.5833-0.2500 (  1655 PWs)   bands (ev):

    -3.9976   0.3186   3.5331   4.1339   7.9300  10.0855  10.7768  10.9362

          k = 0.6667-0.3333 0.6667 (  1669 PWs)   bands (ev):

    -3.4344  -0.5864   3.1968   4.1848   7.9555   9.9615  10.5176  12.2661

          k = 0.5833-0.2500 0.5833 (  1655 PWs)   bands (ev):

    -3.3252  -0.7399   2.9902   4.3629   8.0873   9.9246  10.2966  13.7885

          k = 0.5000-0.1667 0.5000 (  1664 PWs)   bands (ev):

    -3.8059  -0.0062   2.9396   4.6495   8.3326   9.9891  10.1263  13.0793

          k = 0.4167-0.0833 0.4167 (  1656 PWs)   bands (ev):

    -4.4117   1.1077   3.0887   5.0077   8.6404   9.8865  10.0502  11.9320

          k = 0.3333 0.0000 0.3333 (  1646 PWs)   bands (ev):

    -4.9296   2.2220   3.5746   5.3621   8.8707   9.4447   9.7196  11.4714

          k = 0.0000 0.5000 0.0000 (  1636 PWs)   bands (ev):

    -4.7997   2.3939   4.0786   4.0786   7.0750   9.0546  11.5855  11.5855

          k =-0.0833 0.5833-0.0833 (  1664 PWs)   bands (ev):

    -4.3739   1.5047   3.6244   3.8372   7.1580   8.7143  11.8527  12.0666

          k =-0.1667 0.6667-0.1667 (  1662 PWs)   bands (ev):

    -3.8139   0.5040   3.0075   3.7316   7.3782   9.1697  11.7070  12.0437

          k = 0.7500-0.2500 0.7500 (  1661 PWs)   bands (ev):

    -3.2094  -0.3930   2.4735   3.7682   7.4666  10.3470  11.5305  11.7824

          k = 0.6667-0.1667 0.6667 (  1660 PWs)   bands (ev):

    -2.8992  -0.7909   2.1206   3.9429   7.6385  11.3113  11.4917  11.9735

          k = 0.5833-0.0833 0.5833 (  1658 PWs)   bands (ev):

    -3.2617  -0.3147   2.0090   4.2392   7.9481  11.1857  11.2766  12.9641

          k = 0.5000 0.0000 0.5000 (  1658 PWs)   bands (ev):

    -3.8647   0.4856   2.2705   4.6205   8.3499  10.6506  10.9897  11.9208

          k = 0.0000 0.6667 0.0000 (  1668 PWs)   bands (ev):

    -3.9973   0.9285   3.5625   3.5625   6.6857   7.9501  13.0608  13.0608

          k =-0.0833 0.7500-0.0833 (  1660 PWs)   bands (ev):

    -3.4761   0.1598   3.0931   3.4226   6.8475   7.8168  13.3632  13.4369

          k = 0.8333-0.1667 0.8333 (  1662 PWs)   bands (ev):

    -2.8649  -0.5903   2.3899   3.4280   7.0247   8.6432  13.2458  13.2731

          k = 0.7500-0.0833 0.7500 (  1658 PWs)   bands (ev):

    -2.4142  -1.0649   1.8304   3.5775   7.1969  10.0622  12.9254  13.0801

          k = 0.6667 0.0000 0.6667 (  1668 PWs)   bands (ev):

    -2.6810  -0.7835   1.6347   3.8584   7.5122  11.6935  12.3001  12.8535

          k = 0.0000 0.8333 0.0000 (  1652 PWs)   bands (ev):

    -2.9930  -0.4899   3.2443   3.2443   6.5403   7.1473  14.5863  14.5863

          k = 0.9167-0.0833 0.9167 (  1661 PWs)   bands (ev):

    -2.3953  -1.1623   2.8295   3.2111   6.7423   7.2996  14.8341  14.9071

          k = 0.8333 0.0000 0.8333 (  1664 PWs)   bands (ev):

    -1.9571  -1.5539   2.1846   3.3252   6.8995   8.4701  14.2894  14.7493

          k = 0.0000-1.0000 0.0000 (  1660 PWs)   bands (ev):

    -1.8121  -1.8121   3.1371   3.1371   6.6833   6.6833  15.7849  15.7849

          k =-0.1667 0.3333 0.0000 (  1658 PWs)   bands (ev):

    -5.2690   3.1943   4.3321   5.2230   8.2494   9.3530  10.0211  10.7747

          k =-0.2500 0.4167-0.0833 (  1654 PWs)   bands (ev):

    -4.8436   1.9810   3.8065   4.9555   8.5144   9.3418  10.4274  10.7984

          k =-0.3333 0.5000-0.1667 (  1654 PWs)   bands (ev):

    -4.2840   0.7131   3.5355   4.6380   8.5289   9.2785  10.4894  11.4267

          k = 0.5833-0.4167 0.7500 (  1654 PWs)   bands (ev):

    -3.6821  -0.3458   3.4058   4.3997   8.4555   9.1270  10.4168  12.6085

          k = 0.5000-0.3333 0.6667 (  1660 PWs)   bands (ev):

    -3.3576  -0.8265   3.3689   4.3113   8.4263   9.0557  10.3743  13.8802

          k =-0.1667 0.5000 0.0000 (  1660 PWs)   bands (ev):

    -4.6922   2.0086   3.6532   4.3300   7.7173   9.4264  10.6673  11.4699

          k =-0.2500 0.5833-0.0833 (  1654 PWs)   bands (ev):

    -4.1735   0.9842   3.1246   4.0517   8.0457   9.6497  10.4102  11.8543

          k = 0.6667-0.3333 0.8333 (  1649 PWs)   bands (ev):

    -3.5664  -0.0386   2.7701   3.8488   8.1668  10.0867  10.6725  11.8414

          k = 0.5833-0.2500 0.7500 (  1660 PWs)   bands (ev):

    -3.0881  -0.7200   2.5284   3.8314   8.2891   9.8169  11.7346  12.1212

          k = 0.5000-0.1667 0.6667 (  1658 PWs)   bands (ev):

    -3.2186  -0.5396   2.4160   3.9982   8.5259   9.6370  11.6441  12.5189

          k = 0.4167-0.0833 0.5833 (  1657 PWs)   bands (ev):

    -3.7891   0.3084   2.4954   4.3051   8.8634   9.5019  11.1428  11.6245

          k = 0.3333 0.0000 0.5000 (  1668 PWs)   bands (ev):

    -4.3748   1.2625   2.9060   4.6747   9.1074   9.2121  10.5682  11.1814

          k =-0.1667 0.6667-0.0000 (  1668 PWs)   bands (ev):

    -3.9018   0.7587   3.1555   3.5714   7.3329   8.4219  11.8801  13.0120

          k = 0.7500-0.2500 0.9167 (  1660 PWs)   bands (ev):

    -3.3127  -0.0572   2.5850   3.3618   7.6665   8.9325  11.5886  13.3749

          k = 0.6667-0.1667 0.8333 (  1661 PWs)   bands (ev):

    -2.7429  -0.7498   2.0790   3.3690   7.8191  10.2045  11.2973  13.3011

          k = 0.5833-0.0833 0.7500 (  1661 PWs)   bands (ev):

    -2.6765  -0.8164   1.8002   3.5614   8.0673  10.9330  11.8995  12.5425

          k = 0.5000 0.0000 0.6667 (  1651 PWs)   bands (ev):

    -3.1968  -0.2418   1.8857   3.8963   8.4438  10.5173  11.3561  12.6736

          k = 0.8333-0.1667 1.0000 (  1662 PWs)   bands (ev):

    -2.9187  -0.5270   2.8788   3.0715   7.1719   7.6885  13.2362  14.5784

          k = 0.7500-0.0833 0.9167 (  1662 PWs)   bands (ev):

    -2.3081  -1.1556   2.2747   3.0283   7.4632   8.5665  12.9267  14.3596

          k = 0.6667 0.0000 0.8333 (  1664 PWs)   bands (ev):

    -2.1638  -1.2621   1.7944   3.2199   7.6942  10.0696  12.4742  12.8634

          k =-0.1667-1.0000 0.0000 (  1666 PWs)   bands (ev):

    -1.7766  -1.7766   2.8450   2.8450   7.2791   7.2791  14.6714  14.6714

          k = 0.6667-0.3333 1.0000 (  1657 PWs)   bands (ev):

    -3.6244   0.3156   2.4482   3.6870   8.7605   9.6410  10.0760  12.8747

          k = 0.5833-0.2500 0.9167 (  1659 PWs)   bands (ev):

    -3.0191  -0.4343   2.1084   3.3619   9.1376   9.6577  10.6154  13.2994

          k = 0.5000-0.1667 0.8333 (  1660 PWs)   bands (ev):

    -2.6720  -0.8479   2.0155   3.2370   9.2892   9.4213  11.9639  12.3288

          k = 0.6667-0.1667 1.0000 (  1655 PWs)   bands (ev):

    -2.7134  -0.6693   2.2569   2.8614   8.5991   9.0103  11.2208  14.0894

          k = 0.5833-0.0833 0.9167 (  1657 PWs)   bands (ev):

    -2.2074  -1.1633   1.9541   2.7115   8.9403  10.1961  10.9422  12.3197

          k = 0.5000 0.0000 0.8333 (  1655 PWs)   bands (ev):

    -2.4334  -0.9373   1.8330   2.9293   9.2376  10.3646  10.8515  12.0719

          k =-0.3333-1.0000 0.0000 (  1654 PWs)   bands (ev):

    -1.7009  -1.7009   2.3799   2.3799   8.6714   8.6714  12.5810  12.5810

          k =-0.5000-1.0000 0.0000 (  1648 PWs)   bands (ev):

    -1.6603  -1.6603   2.1809   2.1809  10.1939  10.1939  10.8230  10.8230

     the Fermi energy is     6.3171 ev
     (compare with:     5.9182 eV, computed in scf)

     Writing output data file ./outdir/si.save/

     init_run     :      0.05s CPU      0.05s WALL (       1 calls)
     electrons    :      2.75s CPU      2.79s WALL (       1 calls)

     Called by init_run:
     wfcinit      :      0.00s CPU      0.00s WALL (       1 calls)
     potinit      :      0.00s CPU      0.00s WALL (       1 calls)
     hinit0       :      0.03s CPU      0.03s WALL (       1 calls)

     Called by electrons:
     c_bands      :      2.73s CPU      2.77s WALL (       1 calls)
     v_of_rho     :      0.00s CPU      0.00s WALL (       1 calls)
     newd         :      0.00s CPU      0.01s WALL (       1 calls)

     Called by c_bands:
     init_us_2    :      0.00s CPU      0.00s WALL (      72 calls)
     cegterg      :      2.61s CPU      2.64s WALL (     156 calls)

     Called by *egterg:
     cdiaghg      :      0.14s CPU      0.14s WALL (    2475 calls)
     h_psi        :      2.05s CPU      2.08s WALL (    2631 calls)
     s_psi        :      0.11s CPU      0.11s WALL (    2631 calls)
     g_psi        :      0.01s CPU      0.01s WALL (    2403 calls)

     Called by h_psi:
     h_psi:calbec :      0.18s CPU      0.19s WALL (    2631 calls)
     vloc_psi     :      1.74s CPU      1.77s WALL (    2631 calls)
     add_vuspsi   :      0.11s CPU      0.11s WALL (    2631 calls)

     General routines
     calbec       :      0.18s CPU      0.19s WALL (    2631 calls)
     fft          :      0.00s CPU      0.00s WALL (      12 calls)
     fftw         :      1.61s CPU      1.63s WALL (   28576 calls)
     davcio       :      0.00s CPU      0.00s WALL (     144 calls)

     Parallel routines

     PWSCF        :      3.03s CPU      3.10s WALL


   This run was terminated on:  14:48:48  17Dec2021            

=------------------------------------------------------------------------------=
   JOB DONE.
=------------------------------------------------------------------------------=
