
     Program PWSCF v.6.8 starts on 17Dec2021 at 14:48:38 

     This program is part of the open-source Quantum ESPRESSO suite
     for quantum simulation of materials; please cite
         "P. Giannozzi et al., J. Phys.:Condens. Matter 21 395502 (2009);
         "P. Giannozzi et al., J. Phys.:Condens. Matter 29 465901 (2017);
         "P. Giannozzi et al., J. Chem. Phys. 152 154105 (2020);
          URL http://www.quantum-espresso.org", 
     in publications or presentations arising from this work. More details at
     http://www.quantum-espresso.org/quote

     Parallel version (MPI), running on     6 processors

     MPI processes distributed on     1 nodes
     R & G space division:  proc/nbgrp/npool/nimage =       6
     10546 MiB available memory on the printing compute node when the environment starts

     Reading input from si.scf.in

     Current dimensions of program PWSCF are:
     Max number of different atomic species (ntypx) = 10
     Max number of k-points (npk) =  40000
     Max angular momentum in pseudopotentials (lmaxx) =  4

     Subspace diagonalization in iterative solution of the eigenvalue problem:
     a serial algorithm will be used


     Parallelization info
     --------------------
     sticks:   dense  smooth     PW     G-vecs:    dense   smooth      PW
     Min         124     124     37                 2220     2220     371
     Max         125     125     38                 2222     2222     373
     Sum         745     745    223                13323    13323    2229

     Using Slab Decomposition



     bravais-lattice index     =            2
     lattice parameter (alat)  =      10.3576  a.u.
     unit-cell volume          =     277.7899 (a.u.)^3
     number of atoms/cell      =            2
     number of atomic types    =            1
     number of electrons       =         8.00
     number of Kohn-Sham states=            4
     kinetic-energy cutoff     =      50.0000  Ry
     charge density cutoff     =     200.0000  Ry
     scf convergence threshold =      1.0E-08
     mixing beta               =       0.7000
     number of iterations used =            8  plain     mixing
     Exchange-correlation= PBE
                           (   1   4   3   4   0   0   0)

     celldm(1)=  10.357592  celldm(2)=   0.000000  celldm(3)=   0.000000
     celldm(4)=   0.000000  celldm(5)=   0.000000  celldm(6)=   0.000000

     crystal axes: (cart. coord. in units of alat)
               a(1) = (  -0.500000   0.000000   0.500000 )  
               a(2) = (   0.000000   0.500000   0.500000 )  
               a(3) = (  -0.500000   0.500000   0.000000 )  

     reciprocal axes: (cart. coord. in units 2 pi/alat)
               b(1) = ( -1.000000 -1.000000  1.000000 )  
               b(2) = (  1.000000  1.000000  1.000000 )  
               b(3) = ( -1.000000  1.000000 -1.000000 )  


     PseudoPot. # 1 for Si read from file:
     /home/pratham007/Downloads/SSSP_1.1.2_PBE_precision/Si.pbe-n-rrkjus_psl.1.0.0.UPF
     MD5 check sum: 0b0bb1205258b0d07b9f9672cf965d36
     Pseudo is Ultrasoft + core correction, Zval =  4.0
     Generated using "atomic" code by A. Dal Corso  v.5.1
     Using radial grid of 1141 points,  6 beta functions with: 
                l(1) =   0
                l(2) =   0
                l(3) =   1
                l(4) =   1
                l(5) =   2
                l(6) =   2
     Q(r) pseudized with 0 coefficients 


     atomic species   valence    mass     pseudopotential
        Si             4.00    28.08550     Si( 1.00)

     48 Sym. Ops., with inversion, found (24 have fractional translation)



   Cartesian axes

     site n.     atom                  positions (alat units)
         1           Si  tau(   1) = (   0.0000000   0.0000000   0.0000000  )
         2           Si  tau(   2) = (   0.2500000   0.2500000   0.2500000  )

     number of k points=    29
                       cart. coord. in units 2pi/alat
        k(    1) = (   0.0000000   0.0000000   0.0000000), wk =   0.0039062
        k(    2) = (  -0.1250000   0.1250000  -0.1250000), wk =   0.0312500
        k(    3) = (  -0.2500000   0.2500000  -0.2500000), wk =   0.0312500
        k(    4) = (  -0.3750000   0.3750000  -0.3750000), wk =   0.0312500
        k(    5) = (   0.5000000  -0.5000000   0.5000000), wk =   0.0156250
        k(    6) = (   0.0000000   0.2500000   0.0000000), wk =   0.0234375
        k(    7) = (  -0.1250000   0.3750000  -0.1250000), wk =   0.0937500
        k(    8) = (  -0.2500000   0.5000000  -0.2500000), wk =   0.0937500
        k(    9) = (   0.6250000  -0.3750000   0.6250000), wk =   0.0937500
        k(   10) = (   0.5000000  -0.2500000   0.5000000), wk =   0.0937500
        k(   11) = (   0.3750000  -0.1250000   0.3750000), wk =   0.0937500
        k(   12) = (   0.2500000   0.0000000   0.2500000), wk =   0.0468750
        k(   13) = (   0.0000000   0.5000000   0.0000000), wk =   0.0234375
        k(   14) = (  -0.1250000   0.6250000  -0.1250000), wk =   0.0937500
        k(   15) = (   0.7500000  -0.2500000   0.7500000), wk =   0.0937500
        k(   16) = (   0.6250000  -0.1250000   0.6250000), wk =   0.0937500
        k(   17) = (   0.5000000   0.0000000   0.5000000), wk =   0.0468750
        k(   18) = (   0.0000000   0.7500000   0.0000000), wk =   0.0234375
        k(   19) = (   0.8750000  -0.1250000   0.8750000), wk =   0.0937500
        k(   20) = (   0.7500000   0.0000000   0.7500000), wk =   0.0468750
        k(   21) = (   0.0000000  -1.0000000   0.0000000), wk =   0.0117188
        k(   22) = (  -0.2500000   0.5000000   0.0000000), wk =   0.0937500
        k(   23) = (   0.6250000  -0.3750000   0.8750000), wk =   0.1875000
        k(   24) = (   0.5000000  -0.2500000   0.7500000), wk =   0.0937500
        k(   25) = (   0.7500000  -0.2500000   1.0000000), wk =   0.0937500
        k(   26) = (   0.6250000  -0.1250000   0.8750000), wk =   0.1875000
        k(   27) = (   0.5000000   0.0000000   0.7500000), wk =   0.0937500
        k(   28) = (  -0.2500000  -1.0000000   0.0000000), wk =   0.0468750
        k(   29) = (  -0.5000000  -1.0000000   0.0000000), wk =   0.0234375

     Dense  grid:    13323 G-vectors     FFT dimensions: (  36,  36,  36)

     Estimated max dynamical RAM per process >       9.62 MB

     Estimated total dynamical RAM >      57.73 MB

     Check: negative core charge=   -0.000001

     Initial potential from superposition of free atoms

     starting charge    7.99888, renormalised to    8.00000
     Starting wfcs are    8 randomized atomic wfcs

     total cpu time spent up to now is        0.2 secs

     Self-consistent Calculation

     iteration #  1     ecut=    50.00 Ry     beta= 0.70
     Davidson diagonalization with overlap
     ethr =  1.00E-02,  avg # of iterations =  2.0

     Threshold (ethr) on eigenvalues was too large:
     Diagonalizing with lowered threshold

     Davidson diagonalization with overlap
     ethr =  5.93E-04,  avg # of iterations =  1.6

     total cpu time spent up to now is        0.3 secs

     total energy              =     -22.83746232 Ry
     estimated scf accuracy    <       0.05154362 Ry

     iteration #  2     ecut=    50.00 Ry     beta= 0.70
     Davidson diagonalization with overlap
     ethr =  6.44E-04,  avg # of iterations =  1.0

     total cpu time spent up to now is        0.4 secs

     total energy              =     -22.83909968 Ry
     estimated scf accuracy    <       0.00282816 Ry

     iteration #  3     ecut=    50.00 Ry     beta= 0.70
     Davidson diagonalization with overlap
     ethr =  3.54E-05,  avg # of iterations =  2.7

     total cpu time spent up to now is        0.5 secs

     total energy              =     -22.83981767 Ry
     estimated scf accuracy    <       0.00009772 Ry

     iteration #  4     ecut=    50.00 Ry     beta= 0.70
     Davidson diagonalization with overlap
     ethr =  1.22E-06,  avg # of iterations =  3.8

     total cpu time spent up to now is        0.6 secs

     total energy              =     -22.83988158 Ry
     estimated scf accuracy    <       0.00001202 Ry

     iteration #  5     ecut=    50.00 Ry     beta= 0.70
     Davidson diagonalization with overlap
     ethr =  1.50E-07,  avg # of iterations =  3.5

     total cpu time spent up to now is        0.7 secs

     total energy              =     -22.83988648 Ry
     estimated scf accuracy    <       0.00000035 Ry

     iteration #  6     ecut=    50.00 Ry     beta= 0.70
     Davidson diagonalization with overlap
     ethr =  4.33E-09,  avg # of iterations =  4.9

     total cpu time spent up to now is        0.8 secs

     total energy              =     -22.83988676 Ry
     estimated scf accuracy    <       0.00000017 Ry

     iteration #  7     ecut=    50.00 Ry     beta= 0.70
     Davidson diagonalization with overlap
     ethr =  2.19E-09,  avg # of iterations =  2.1

     total cpu time spent up to now is        0.9 secs

     End of self-consistent calculation

          k = 0.0000 0.0000 0.0000 (  1639 PWs)   bands (ev):

    -5.8555   5.9182   5.9182   5.9182

          k =-0.1250 0.1250-0.1250 (  1678 PWs)   bands (ev):

    -5.6563   4.3262   5.6369   5.6369

          k =-0.2500 0.2500-0.2500 (  1654 PWs)   bands (ev):

    -5.0756   2.0394   5.1756   5.1756

          k =-0.3750 0.3750-0.3750 (  1655 PWs)   bands (ev):

    -4.2073   0.0656   4.8535   4.8535

          k = 0.5000-0.5000 0.5000 (  1676 PWs)   bands (ev):

    -3.5939  -0.9251   4.7430   4.7430

          k = 0.0000 0.2500 0.0000 (  1667 PWs)   bands (ev):

    -5.5891   4.5565   5.1360   5.1360

          k =-0.1250 0.3750-0.1250 (  1654 PWs)   bands (ev):

    -5.1319   2.7131   4.6357   4.6956

          k =-0.2500 0.5000-0.2500 (  1660 PWs)   bands (ev):

    -4.3387   0.7026   4.1142   4.3712

          k = 0.6250-0.3750 0.6250 (  1662 PWs)   bands (ev):

    -3.5069  -0.7178   3.6795   4.3924

          k = 0.5000-0.2500 0.5000 (  1658 PWs)   bands (ev):

    -3.7419  -0.3595   3.5062   4.6797

          k = 0.3750-0.1250 0.3750 (  1657 PWs)   bands (ev):

    -4.6367   1.3450   3.6618   5.1585

          k = 0.2500 0.0000 0.2500 (  1650 PWs)   bands (ev):

    -5.3283   3.2419   4.3384   5.6283

          k = 0.0000 0.5000 0.0000 (  1636 PWs)   bands (ev):

    -4.7995   2.3941   4.0788   4.0788

          k =-0.1250 0.6250-0.1250 (  1659 PWs)   bands (ev):

    -4.1075   1.0052   3.3170   3.7669

          k = 0.7500-0.2500 0.7500 (  1661 PWs)   bands (ev):

    -3.2093  -0.3929   2.4736   3.7684

          k = 0.6250-0.1250 0.6250 (  1658 PWs)   bands (ev):

    -3.0143  -0.6403   2.0296   4.0777

          k = 0.5000 0.0000 0.5000 (  1658 PWs)   bands (ev):

    -3.8646   0.4857   2.2706   4.6207

          k = 0.0000 0.7500 0.0000 (  1664 PWs)   bands (ev):

    -3.5189   0.2105   3.3777   3.3777

          k = 0.8750-0.1250 0.8750 (  1660 PWs)   bands (ev):

    -2.6454  -0.8503   2.5794   3.3027

          k = 0.7500 0.0000 0.7500 (  1666 PWs)   bands (ev):

    -2.2269  -1.2320   1.7444   3.5534

          k = 0.0000-1.0000 0.0000 (  1660 PWs)   bands (ev):

    -1.8119  -1.8119   3.1372   3.1372

          k =-0.2500 0.5000 0.0000 (  1660 PWs)   bands (ev):

    -4.5589   1.6510   3.2811   4.5235

          k = 0.6250-0.3750 0.8750 (  1654 PWs)   bands (ev):

    -3.6955   0.1412   2.6780   4.0399

          k = 0.5000-0.2500 0.7500 (  1644 PWs)   bands (ev):

    -3.0670  -0.7706   2.5458   3.8188

          k = 0.7500-0.2500 1.0000 (  1662 PWs)   bands (ev):

    -3.3273  -0.0036   2.6489   3.2376

          k = 0.6250-0.1250 0.8750 (  1658 PWs)   bands (ev):

    -2.4804  -0.9461   1.9742   3.0431

          k = 0.5000 0.0000 0.7500 (  1655 PWs)   bands (ev):

    -2.8218  -0.5900   1.8132   3.4071

          k =-0.2500-1.0000 0.0000 (  1662 PWs)   bands (ev):

    -1.7395  -1.7395   2.5984   2.5984

          k =-0.5000-1.0000 0.0000 (  1648 PWs)   bands (ev):

    -1.6602  -1.6602   2.1810   2.1810

     highest occupied level (ev):     5.9182

!    total energy              =     -22.83988679 Ry
     estimated scf accuracy    <          1.8E-09 Ry

     The total energy is the sum of the following terms:
     one-electron contribution =       4.95265721 Ry
     hartree contribution      =       1.12588282 Ry
     xc contribution           =     -12.27580028 Ry
     ewald contribution        =     -16.64262653 Ry

     convergence has been achieved in   7 iterations

     Writing output data file ./outdir/si.save/

     init_run     :      0.09s CPU      0.09s WALL (       1 calls)
     electrons    :      0.75s CPU      0.77s WALL (       1 calls)

     Called by init_run:
     wfcinit      :      0.04s CPU      0.04s WALL (       1 calls)
     potinit      :      0.00s CPU      0.00s WALL (       1 calls)
     hinit0       :      0.03s CPU      0.03s WALL (       1 calls)

     Called by electrons:
     c_bands      :      0.53s CPU      0.54s WALL (       8 calls)
     sum_band     :      0.14s CPU      0.15s WALL (       8 calls)
     v_of_rho     :      0.02s CPU      0.02s WALL (       8 calls)
     newd         :      0.06s CPU      0.06s WALL (       8 calls)
     mix_rho      :      0.00s CPU      0.00s WALL (       8 calls)

     Called by c_bands:
     init_us_2    :      0.03s CPU      0.03s WALL (     493 calls)
     cegterg      :      0.47s CPU      0.48s WALL (     232 calls)

     Called by *egterg:
     cdiaghg      :      0.01s CPU      0.02s WALL (     830 calls)
     h_psi        :      0.42s CPU      0.43s WALL (     888 calls)
     s_psi        :      0.02s CPU      0.02s WALL (     888 calls)
     g_psi        :      0.00s CPU      0.00s WALL (     627 calls)

     Called by h_psi:
     h_psi:calbec :      0.04s CPU      0.04s WALL (     888 calls)
     vloc_psi     :      0.36s CPU      0.37s WALL (     888 calls)
     add_vuspsi   :      0.02s CPU      0.02s WALL (     888 calls)

     General routines
     calbec       :      0.05s CPU      0.05s WALL (    1120 calls)
     fft          :      0.01s CPU      0.01s WALL (      89 calls)
     ffts         :      0.00s CPU      0.00s WALL (       8 calls)
     fftw         :      0.39s CPU      0.39s WALL (    7044 calls)

     Parallel routines

     PWSCF        :      0.92s CPU      0.95s WALL


   This run was terminated on:  14:48:39  17Dec2021            

=------------------------------------------------------------------------------=
   JOB DONE.
=------------------------------------------------------------------------------=
