
     Program PWSCF v.6.8 starts on 16Dec2021 at 22:43:17 

     This program is part of the open-source Quantum ESPRESSO suite
     for quantum simulation of materials; please cite
         "P. Giannozzi et al., J. Phys.:Condens. Matter 21 395502 (2009);
         "P. Giannozzi et al., J. Phys.:Condens. Matter 29 465901 (2017);
         "P. Giannozzi et al., J. Chem. Phys. 152 154105 (2020);
          URL http://www.quantum-espresso.org", 
     in publications or presentations arising from this work. More details at
     http://www.quantum-espresso.org/quote

     Parallel version (MPI), running on     6 processors

     MPI processes distributed on     1 nodes
     R & G space division:  proc/nbgrp/npool/nimage =       6
     10920 MiB available memory on the printing compute node when the environment starts

     Reading input from h2.scf.apart.in

     Current dimensions of program PWSCF are:
     Max number of different atomic species (ntypx) = 10
     Max number of k-points (npk) =  40000
     Max angular momentum in pseudopotentials (lmaxx) =  4

     Subspace diagonalization in iterative solution of the eigenvalue problem:
     a serial algorithm will be used


     Parallelization info
     --------------------
     sticks:   dense  smooth     PW     G-vecs:    dense   smooth      PW
     Min         634     634    158                29584    29584    3686
     Max         635     635    159                29585    29585    3689
     Sum        3809    3809    949               177509   177509   22119

     Using Slab Decomposition



     bravais-lattice index     =            1
     lattice parameter (alat)  =      20.0000  a.u.
     unit-cell volume          =    8000.0000 (a.u.)^3
     number of atoms/cell      =            2
     number of atomic types    =            1
     number of electrons       =         2.00
     number of Kohn-Sham states=            1
     kinetic-energy cutoff     =      30.0000  Ry
     charge density cutoff     =     120.0000  Ry
     scf convergence threshold =      1.0E-08
     mixing beta               =       0.7000
     number of iterations used =            8  plain     mixing
     Exchange-correlation= PBE
                           (   1   4   3   4   0   0   0)

     celldm(1)=  20.000000  celldm(2)=   0.000000  celldm(3)=   0.000000
     celldm(4)=   0.000000  celldm(5)=   0.000000  celldm(6)=   0.000000

     crystal axes: (cart. coord. in units of alat)
               a(1) = (   1.000000   0.000000   0.000000 )  
               a(2) = (   0.000000   1.000000   0.000000 )  
               a(3) = (   0.000000   0.000000   1.000000 )  

     reciprocal axes: (cart. coord. in units 2 pi/alat)
               b(1) = (  1.000000  0.000000  0.000000 )  
               b(2) = (  0.000000  1.000000  0.000000 )  
               b(3) = (  0.000000  0.000000  1.000000 )  


     PseudoPot. # 1 for H  read from file:
     /home/pratham007/Downloads/SSSP_1.1.2_PBE_precision/H_ONCV_PBE-1.0.oncvpsp.upf
     MD5 check sum: 1790becc920ee074925cf490c71280fe
     Pseudo is Norm-conserving, Zval =  1.0
     Generated using ONCVPSP code by D. R. Hamann
     Using radial grid of 1166 points,  2 beta functions with: 
                l(1) =   0
                l(2) =   0

     atomic species   valence    mass     pseudopotential
        H              1.00     1.00784     H ( 1.00)

      8 Sym. Ops. (no inversion) found



   Cartesian axes

     site n.     atom                  positions (alat units)
         1           H   tau(   1) = (   0.0000000   0.0000000   0.0000000  )
         2           H   tau(   2) = (   0.1889726   0.0000000   0.0000000  )

     number of k points=     1
                       cart. coord. in units 2pi/alat
        k(    1) = (   0.0000000   0.0000000   0.0000000), wk =   2.0000000

     Dense  grid:   177509 G-vectors     FFT dimensions: (  72,  72,  72)

     Estimated max dynamical RAM per process >      17.11 MB

     Estimated total dynamical RAM >     102.64 MB

     Initial potential from superposition of free atoms

     starting charge    1.99998, renormalised to    2.00000

     negative rho (up, down):  1.418E-03 0.000E+00
     Starting wfcs are    2 randomized atomic wfcs

     total cpu time spent up to now is        0.2 secs

     Self-consistent Calculation

     iteration #  1     ecut=    30.00 Ry     beta= 0.70
     Davidson diagonalization with overlap
     ethr =  1.00E-02,  avg # of iterations =  1.0

     Threshold (ethr) on eigenvalues was too large:
     Diagonalizing with lowered threshold

     Davidson diagonalization with overlap
     ethr =  4.85E-04,  avg # of iterations =  1.0

     negative rho (up, down):  3.445E-04 0.000E+00

     total cpu time spent up to now is        0.3 secs

     total energy              =      -1.98631054 Ry
     estimated scf accuracy    <       0.00998948 Ry

     iteration #  2     ecut=    30.00 Ry     beta= 0.70
     Davidson diagonalization with overlap
     ethr =  4.99E-04,  avg # of iterations =  1.0

     negative rho (up, down):  5.891E-06 0.000E+00

     total cpu time spent up to now is        0.5 secs

     total energy              =      -1.98637084 Ry
     estimated scf accuracy    <       0.00072280 Ry

     iteration #  3     ecut=    30.00 Ry     beta= 0.70
     Davidson diagonalization with overlap
     ethr =  3.61E-05,  avg # of iterations =  1.0

     negative rho (up, down):  4.273E-06 0.000E+00

     total cpu time spent up to now is        0.6 secs

     total energy              =      -1.98641332 Ry
     estimated scf accuracy    <       0.00000628 Ry

     iteration #  4     ecut=    30.00 Ry     beta= 0.70
     Davidson diagonalization with overlap
     ethr =  3.14E-07,  avg # of iterations =  2.0

     negative rho (up, down):  7.030E-07 0.000E+00

     total cpu time spent up to now is        0.7 secs

     total energy              =      -1.98641563 Ry
     estimated scf accuracy    <       0.00000026 Ry

     iteration #  5     ecut=    30.00 Ry     beta= 0.70
     Davidson diagonalization with overlap
     ethr =  1.30E-08,  avg # of iterations =  2.0

     negative rho (up, down):  3.304E-07 0.000E+00

     total cpu time spent up to now is        0.7 secs

     total energy              =      -1.98641563 Ry
     estimated scf accuracy    <       0.00000017 Ry

     iteration #  6     ecut=    30.00 Ry     beta= 0.70
     Davidson diagonalization with overlap
     ethr =  8.65E-09,  avg # of iterations =  1.0

     total cpu time spent up to now is        0.8 secs

     total energy              =      -1.98641563 Ry
     estimated scf accuracy    <       0.00000004 Ry

     iteration #  7     ecut=    30.00 Ry     beta= 0.70
     Davidson diagonalization with overlap
     ethr =  1.88E-09,  avg # of iterations =  4.0

     negative rho (up, down):  1.305E-08 0.000E+00

     total cpu time spent up to now is        0.9 secs

     total energy              =      -1.98641563 Ry
     estimated scf accuracy    <       0.00000015 Ry

     iteration #  8     ecut=    30.00 Ry     beta= 0.70
     Davidson diagonalization with overlap
     ethr =  1.88E-09,  avg # of iterations =  2.0

     negative rho (up, down):  1.541E-08 0.000E+00

     total cpu time spent up to now is        1.0 secs

     total energy              =      -1.98641566 Ry
     estimated scf accuracy    <       0.00000004 Ry

     iteration #  9     ecut=    30.00 Ry     beta= 0.70
     Davidson diagonalization with overlap
     ethr =  1.88E-09,  avg # of iterations =  1.0

     total cpu time spent up to now is        1.1 secs

     total energy              =      -1.98641562 Ry
     estimated scf accuracy    <       0.00000009 Ry

     iteration # 10     ecut=    30.00 Ry     beta= 0.70
     Davidson diagonalization with overlap
     ethr =  1.88E-09,  avg # of iterations =  4.0

     total cpu time spent up to now is        1.2 secs

     total energy              =      -1.98641566 Ry
     estimated scf accuracy    <       0.00000004 Ry

     iteration # 11     ecut=    30.00 Ry     beta= 0.70
     Davidson diagonalization with overlap
     ethr =  1.88E-09,  avg # of iterations =  1.0

     total cpu time spent up to now is        1.3 secs

     total energy              =      -1.98641567 Ry
     estimated scf accuracy    <       0.00000006 Ry

     iteration # 12     ecut=    30.00 Ry     beta= 0.70
     Davidson diagonalization with overlap
     ethr =  1.88E-09,  avg # of iterations =  1.0

     total cpu time spent up to now is        1.3 secs

     total energy              =      -1.98641570 Ry
     estimated scf accuracy    <       0.00000011 Ry

     iteration # 13     ecut=    30.00 Ry     beta= 0.70
     Davidson diagonalization with overlap
     ethr =  1.88E-09,  avg # of iterations =  4.0

     total cpu time spent up to now is        1.4 secs

     total energy              =      -1.98641575 Ry
     estimated scf accuracy    <       0.00000046 Ry

     iteration # 14     ecut=    30.00 Ry     beta= 0.70
     Davidson diagonalization with overlap
     ethr =  1.88E-09,  avg # of iterations =  2.0

     total cpu time spent up to now is        1.5 secs

     total energy              =      -1.98641562 Ry
     estimated scf accuracy    <       0.00000075 Ry

     iteration # 15     ecut=    30.00 Ry     beta= 0.70
     Davidson diagonalization with overlap
     ethr =  1.88E-09,  avg # of iterations =  3.0

     total cpu time spent up to now is        1.6 secs

     total energy              =      -1.98641555 Ry
     estimated scf accuracy    <       0.00000016 Ry

     iteration # 16     ecut=    30.00 Ry     beta= 0.70
     Davidson diagonalization with overlap
     ethr =  1.88E-09,  avg # of iterations =  5.0

     total cpu time spent up to now is        1.7 secs

     total energy              =      -1.98641563 Ry
     estimated scf accuracy    <       0.00000069 Ry

     iteration # 17     ecut=    30.00 Ry     beta= 0.70
     Davidson diagonalization with overlap
     ethr =  1.88E-09,  avg # of iterations =  3.0

     total cpu time spent up to now is        1.8 secs

     total energy              =      -1.98641556 Ry
     estimated scf accuracy    <       0.00000030 Ry

     iteration # 18     ecut=    30.00 Ry     beta= 0.70
     Davidson diagonalization with overlap
     ethr =  1.88E-09,  avg # of iterations =  5.0

     total cpu time spent up to now is        1.9 secs

     total energy              =      -1.98641564 Ry
     estimated scf accuracy    <       0.00000010 Ry

     iteration # 19     ecut=    30.00 Ry     beta= 0.70
     Davidson diagonalization with overlap
     ethr =  1.88E-09,  avg # of iterations =  1.0

     total cpu time spent up to now is        1.9 secs

     total energy              =      -1.98641565 Ry
     estimated scf accuracy    <       0.00000006 Ry

     iteration # 20     ecut=    30.00 Ry     beta= 0.70
     Davidson diagonalization with overlap
     ethr =  1.88E-09,  avg # of iterations =  1.0

     total cpu time spent up to now is        2.0 secs

     total energy              =      -1.98641564 Ry
     estimated scf accuracy    <       0.00000005 Ry

     iteration # 21     ecut=    30.00 Ry     beta= 0.70
     Davidson diagonalization with overlap
     ethr =  1.88E-09,  avg # of iterations =  1.0

     total cpu time spent up to now is        2.1 secs

     total energy              =      -1.98641564 Ry
     estimated scf accuracy    <       0.00000003 Ry

     iteration # 22     ecut=    30.00 Ry     beta= 0.70
     Davidson diagonalization with overlap
     ethr =  1.74E-09,  avg # of iterations =  1.0

     total cpu time spent up to now is        2.2 secs

     total energy              =      -1.98641564 Ry
     estimated scf accuracy    <       0.00000003 Ry

     iteration # 23     ecut=    30.00 Ry     beta= 0.70
     Davidson diagonalization with overlap
     ethr =  1.42E-09,  avg # of iterations =  1.0

     total cpu time spent up to now is        2.2 secs

     total energy              =      -1.98641564 Ry
     estimated scf accuracy    <       0.00000001 Ry

     iteration # 24     ecut=    30.00 Ry     beta= 0.70
     Davidson diagonalization with overlap
     ethr =  6.78E-10,  avg # of iterations =  3.0

     total cpu time spent up to now is        2.3 secs

     End of self-consistent calculation

          k = 0.0000 0.0000 0.0000 ( 22119 PWs)   bands (ev):

    -7.4155

     highest occupied level (ev):    -7.4155

!    total energy              =      -1.98641564 Ry
     estimated scf accuracy    <          1.3E-10 Ry

     The total energy is the sum of the following terms:
     one-electron contribution =      -2.09910202 Ry
     hartree contribution      =       1.14798331 Ry
     xc contribution           =      -1.00489337 Ry
     ewald contribution        =      -0.03040356 Ry

     convergence has been achieved in  24 iterations

     Writing output data file ../out/h2.save/

     init_run     :      0.15s CPU      0.17s WALL (       1 calls)
     electrons    :      2.04s CPU      2.12s WALL (       1 calls)

     Called by init_run:
     wfcinit      :      0.01s CPU      0.01s WALL (       1 calls)
     potinit      :      0.08s CPU      0.09s WALL (       1 calls)
     hinit0       :      0.01s CPU      0.01s WALL (       1 calls)

     Called by electrons:
     c_bands      :      0.17s CPU      0.18s WALL (      25 calls)
     sum_band     :      0.21s CPU      0.25s WALL (      25 calls)
     v_of_rho     :      1.13s CPU      1.16s WALL (      25 calls)
     mix_rho      :      0.50s CPU      0.52s WALL (      25 calls)

     Called by c_bands:
     init_us_2    :      0.01s CPU      0.02s WALL (      51 calls)
     cegterg      :      0.15s CPU      0.16s WALL (      25 calls)

     Called by *egterg:
     cdiaghg      :      0.00s CPU      0.00s WALL (      76 calls)
     h_psi        :      0.15s CPU      0.16s WALL (      78 calls)
     g_psi        :      0.00s CPU      0.00s WALL (      52 calls)

     Called by h_psi:
     h_psi:calbec :      0.01s CPU      0.01s WALL (      78 calls)
     vloc_psi     :      0.14s CPU      0.15s WALL (      78 calls)
     add_vuspsi   :      0.00s CPU      0.00s WALL (      78 calls)

     General routines
     calbec       :      0.01s CPU      0.01s WALL (      78 calls)
     fft          :      0.52s CPU      0.54s WALL (     250 calls)
     ffts         :      0.04s CPU      0.05s WALL (      25 calls)
     fftw         :      0.14s CPU      0.15s WALL (     183 calls)

     Parallel routines

     PWSCF        :      2.22s CPU      2.33s WALL


   This run was terminated on:  22:43:19  16Dec2021            

=------------------------------------------------------------------------------=
   JOB DONE.
=------------------------------------------------------------------------------=
